<?xml version="1.0"?> 
<VTKFile type="UnstructuredGrid"> 
   <UnstructuredGrid> 
      <Piece NumberOfPoints="6000"  NumberOfCells="1500">  
          <Points>  
             <DataArray type="Float64" NumberOfComponents="3" format="ascii">   
-500.0   0.0   0.0
-450.0   0.0   0.0
-500.0   30.0   0.0
-500.0   0.0   16.666666666666668
-450.0   0.0   0.0
-450.0   30.0   0.0
-500.0   30.0   0.0
-450.0   30.0   16.666666666666668
-500.0   0.0   16.666666666666668
-500.0   30.0   16.666666666666668
-450.0   30.0   16.666666666666668
-500.0   30.0   0.0
-500.0   0.0   16.666666666666668
-450.0   30.0   16.666666666666668
-450.0   0.0   16.666666666666668
-450.0   0.0   0.0
-500.0   0.0   16.666666666666668
-450.0   30.0   16.666666666666668
-450.0   0.0   0.0
-500.0   30.0   0.0
-500.0   0.0   16.666666666666668
-450.0   0.0   16.666666666666668
-500.0   30.0   16.666666666666668
-500.0   0.0   33.333333333333336
-450.0   0.0   16.666666666666668
-450.0   30.0   16.666666666666668
-500.0   30.0   16.666666666666668
-450.0   30.0   33.333333333333336
-500.0   0.0   33.333333333333336
-500.0   30.0   33.333333333333336
-450.0   30.0   33.333333333333336
-500.0   30.0   16.666666666666668
-500.0   0.0   33.333333333333336
-450.0   30.0   33.333333333333336
-450.0   0.0   33.333333333333336
-450.0   0.0   16.666666666666668
-500.0   0.0   33.333333333333336
-450.0   30.0   33.333333333333336
-450.0   0.0   16.666666666666668
-500.0   30.0   16.666666666666668
-500.0   0.0   33.333333333333336
-450.0   0.0   33.333333333333336
-500.0   30.0   33.333333333333336
-500.0   0.0   50.0
-450.0   0.0   33.333333333333336
-450.0   30.0   33.333333333333336
-500.0   30.0   33.333333333333336
-450.0   30.0   50.0
-500.0   0.0   50.0
-500.0   30.0   50.0
-450.0   30.0   50.0
-500.0   30.0   33.333333333333336
-500.0   0.0   50.0
-450.0   30.0   50.0
-450.0   0.0   50.0
-450.0   0.0   33.333333333333336
-500.0   0.0   50.0
-450.0   30.0   50.0
-450.0   0.0   33.333333333333336
-500.0   30.0   33.333333333333336
-500.0   30.0   0.0
-450.0   30.0   0.0
-500.0   60.0   0.0
-500.0   30.0   16.666666666666668
-450.0   30.0   0.0
-450.0   60.0   0.0
-500.0   60.0   0.0
-450.0   60.0   16.666666666666668
-500.0   30.0   16.666666666666668
-500.0   60.0   16.666666666666668
-450.0   60.0   16.666666666666668
-500.0   60.0   0.0
-500.0   30.0   16.666666666666668
-450.0   60.0   16.666666666666668
-450.0   30.0   16.666666666666668
-450.0   30.0   0.0
-500.0   30.0   16.666666666666668
-450.0   60.0   16.666666666666668
-450.0   30.0   0.0
-500.0   60.0   0.0
-500.0   30.0   16.666666666666668
-450.0   30.0   16.666666666666668
-500.0   60.0   16.666666666666668
-500.0   30.0   33.333333333333336
-450.0   30.0   16.666666666666668
-450.0   60.0   16.666666666666668
-500.0   60.0   16.666666666666668
-450.0   60.0   33.333333333333336
-500.0   30.0   33.333333333333336
-500.0   60.0   33.333333333333336
-450.0   60.0   33.333333333333336
-500.0   60.0   16.666666666666668
-500.0   30.0   33.333333333333336
-450.0   60.0   33.333333333333336
-450.0   30.0   33.333333333333336
-450.0   30.0   16.666666666666668
-500.0   30.0   33.333333333333336
-450.0   60.0   33.333333333333336
-450.0   30.0   16.666666666666668
-500.0   60.0   16.666666666666668
-500.0   30.0   33.333333333333336
-450.0   30.0   33.333333333333336
-500.0   60.0   33.333333333333336
-500.0   30.0   50.0
-450.0   30.0   33.333333333333336
-450.0   60.0   33.333333333333336
-500.0   60.0   33.333333333333336
-450.0   60.0   50.0
-500.0   30.0   50.0
-500.0   60.0   50.0
-450.0   60.0   50.0
-500.0   60.0   33.333333333333336
-500.0   30.0   50.0
-450.0   60.0   50.0
-450.0   30.0   50.0
-450.0   30.0   33.333333333333336
-500.0   30.0   50.0
-450.0   60.0   50.0
-450.0   30.0   33.333333333333336
-500.0   60.0   33.333333333333336
-500.0   60.0   0.0
-450.0   60.0   0.0
-500.0   90.0   0.0
-500.0   60.0   16.666666666666668
-450.0   60.0   0.0
-450.0   90.0   0.0
-500.0   90.0   0.0
-450.0   90.0   16.666666666666668
-500.0   60.0   16.666666666666668
-500.0   90.0   16.666666666666668
-450.0   90.0   16.666666666666668
-500.0   90.0   0.0
-500.0   60.0   16.666666666666668
-450.0   90.0   16.666666666666668
-450.0   60.0   16.666666666666668
-450.0   60.0   0.0
-500.0   60.0   16.666666666666668
-450.0   90.0   16.666666666666668
-450.0   60.0   0.0
-500.0   90.0   0.0
-500.0   60.0   16.666666666666668
-450.0   60.0   16.666666666666668
-500.0   90.0   16.666666666666668
-500.0   60.0   33.333333333333336
-450.0   60.0   16.666666666666668
-450.0   90.0   16.666666666666668
-500.0   90.0   16.666666666666668
-450.0   90.0   33.333333333333336
-500.0   60.0   33.333333333333336
-500.0   90.0   33.333333333333336
-450.0   90.0   33.333333333333336
-500.0   90.0   16.666666666666668
-500.0   60.0   33.333333333333336
-450.0   90.0   33.333333333333336
-450.0   60.0   33.333333333333336
-450.0   60.0   16.666666666666668
-500.0   60.0   33.333333333333336
-450.0   90.0   33.333333333333336
-450.0   60.0   16.666666666666668
-500.0   90.0   16.666666666666668
-500.0   60.0   33.333333333333336
-450.0   60.0   33.333333333333336
-500.0   90.0   33.333333333333336
-500.0   60.0   50.0
-450.0   60.0   33.333333333333336
-450.0   90.0   33.333333333333336
-500.0   90.0   33.333333333333336
-450.0   90.0   50.0
-500.0   60.0   50.0
-500.0   90.0   50.0
-450.0   90.0   50.0
-500.0   90.0   33.333333333333336
-500.0   60.0   50.0
-450.0   90.0   50.0
-450.0   60.0   50.0
-450.0   60.0   33.333333333333336
-500.0   60.0   50.0
-450.0   90.0   50.0
-450.0   60.0   33.333333333333336
-500.0   90.0   33.333333333333336
-500.0   90.0   0.0
-450.0   90.0   0.0
-500.0   120.0   0.0
-500.0   90.0   16.666666666666668
-450.0   90.0   0.0
-450.0   120.0   0.0
-500.0   120.0   0.0
-450.0   120.0   16.666666666666668
-500.0   90.0   16.666666666666668
-500.0   120.0   16.666666666666668
-450.0   120.0   16.666666666666668
-500.0   120.0   0.0
-500.0   90.0   16.666666666666668
-450.0   120.0   16.666666666666668
-450.0   90.0   16.666666666666668
-450.0   90.0   0.0
-500.0   90.0   16.666666666666668
-450.0   120.0   16.666666666666668
-450.0   90.0   0.0
-500.0   120.0   0.0
-500.0   90.0   16.666666666666668
-450.0   90.0   16.666666666666668
-500.0   120.0   16.666666666666668
-500.0   90.0   33.333333333333336
-450.0   90.0   16.666666666666668
-450.0   120.0   16.666666666666668
-500.0   120.0   16.666666666666668
-450.0   120.0   33.333333333333336
-500.0   90.0   33.333333333333336
-500.0   120.0   33.333333333333336
-450.0   120.0   33.333333333333336
-500.0   120.0   16.666666666666668
-500.0   90.0   33.333333333333336
-450.0   120.0   33.333333333333336
-450.0   90.0   33.333333333333336
-450.0   90.0   16.666666666666668
-500.0   90.0   33.333333333333336
-450.0   120.0   33.333333333333336
-450.0   90.0   16.666666666666668
-500.0   120.0   16.666666666666668
-500.0   90.0   33.333333333333336
-450.0   90.0   33.333333333333336
-500.0   120.0   33.333333333333336
-500.0   90.0   50.0
-450.0   90.0   33.333333333333336
-450.0   120.0   33.333333333333336
-500.0   120.0   33.333333333333336
-450.0   120.0   50.0
-500.0   90.0   50.0
-500.0   120.0   50.0
-450.0   120.0   50.0
-500.0   120.0   33.333333333333336
-500.0   90.0   50.0
-450.0   120.0   50.0
-450.0   90.0   50.0
-450.0   90.0   33.333333333333336
-500.0   90.0   50.0
-450.0   120.0   50.0
-450.0   90.0   33.333333333333336
-500.0   120.0   33.333333333333336
-500.0   120.0   0.0
-450.0   120.0   0.0
-500.0   150.0   0.0
-500.0   120.0   16.666666666666668
-450.0   120.0   0.0
-450.0   150.0   0.0
-500.0   150.0   0.0
-450.0   150.0   16.666666666666668
-500.0   120.0   16.666666666666668
-500.0   150.0   16.666666666666668
-450.0   150.0   16.666666666666668
-500.0   150.0   0.0
-500.0   120.0   16.666666666666668
-450.0   150.0   16.666666666666668
-450.0   120.0   16.666666666666668
-450.0   120.0   0.0
-500.0   120.0   16.666666666666668
-450.0   150.0   16.666666666666668
-450.0   120.0   0.0
-500.0   150.0   0.0
-500.0   120.0   16.666666666666668
-450.0   120.0   16.666666666666668
-500.0   150.0   16.666666666666668
-500.0   120.0   33.333333333333336
-450.0   120.0   16.666666666666668
-450.0   150.0   16.666666666666668
-500.0   150.0   16.666666666666668
-450.0   150.0   33.333333333333336
-500.0   120.0   33.333333333333336
-500.0   150.0   33.333333333333336
-450.0   150.0   33.333333333333336
-500.0   150.0   16.666666666666668
-500.0   120.0   33.333333333333336
-450.0   150.0   33.333333333333336
-450.0   120.0   33.333333333333336
-450.0   120.0   16.666666666666668
-500.0   120.0   33.333333333333336
-450.0   150.0   33.333333333333336
-450.0   120.0   16.666666666666668
-500.0   150.0   16.666666666666668
-500.0   120.0   33.333333333333336
-450.0   120.0   33.333333333333336
-500.0   150.0   33.333333333333336
-500.0   120.0   50.0
-450.0   120.0   33.333333333333336
-450.0   150.0   33.333333333333336
-500.0   150.0   33.333333333333336
-450.0   150.0   50.0
-500.0   120.0   50.0
-500.0   150.0   50.0
-450.0   150.0   50.0
-500.0   150.0   33.333333333333336
-500.0   120.0   50.0
-450.0   150.0   50.0
-450.0   120.0   50.0
-450.0   120.0   33.333333333333336
-500.0   120.0   50.0
-450.0   150.0   50.0
-450.0   120.0   33.333333333333336
-500.0   150.0   33.333333333333336
-450.0   0.0   0.0
-400.0   0.0   0.0
-450.0   30.0   0.0
-450.0   0.0   16.666666666666668
-400.0   0.0   0.0
-400.0   30.0   0.0
-450.0   30.0   0.0
-400.0   30.0   16.666666666666668
-450.0   0.0   16.666666666666668
-450.0   30.0   16.666666666666668
-400.0   30.0   16.666666666666668
-450.0   30.0   0.0
-450.0   0.0   16.666666666666668
-400.0   30.0   16.666666666666668
-400.0   0.0   16.666666666666668
-400.0   0.0   0.0
-450.0   0.0   16.666666666666668
-400.0   30.0   16.666666666666668
-400.0   0.0   0.0
-450.0   30.0   0.0
-450.0   0.0   16.666666666666668
-400.0   0.0   16.666666666666668
-450.0   30.0   16.666666666666668
[...]
          <PointData>  
             <DataArray type="Float64" NumberOfComponents="3" Name="Strains" format="ascii">   
-6.308032811912798e-05   0.0   -4.1486880286653035e-05
-6.308032811912798e-05   0.0   -4.1486880286653035e-05
-6.308032811912798e-05   0.0   -4.1486880286653035e-05
-6.308032811912798e-05   0.0   -4.1486880286653035e-05
-4.01306142296494e-05   6.976526895806508e-06   9.485589999617489e-07
-4.01306142296494e-05   6.976526895806508e-06   9.485589999617489e-07
-4.01306142296494e-05   6.976526895806508e-06   9.485589999617489e-07
-4.01306142296494e-05   6.976526895806508e-06   9.485589999617489e-07
-3.933111155235689e-05   0.0   -3.9166908326481593e-05
-3.933111155235689e-05   0.0   -3.9166908326481593e-05
-3.933111155235689e-05   0.0   -3.9166908326481593e-05
-3.933111155235689e-05   0.0   -3.9166908326481593e-05
-6.600931584815005e-05   8.37770489969179e-06   2.7014256002546645e-07
-6.600931584815005e-05   8.37770489969179e-06   2.7014256002546645e-07
-6.600931584815005e-05   8.37770489969179e-06   2.7014256002546645e-07
-6.600931584815005e-05   8.37770489969179e-06   2.7014256002546645e-07
-5.1205719835742346e-05   1.9333099668095337e-06   -2.0535880500924687e-05
-5.1205719835742346e-05   1.9333099668095337e-06   -2.0535880500924687e-05
-5.1205719835742346e-05   1.9333099668095337e-06   -2.0535880500924687e-05
-5.1205719835742346e-05   1.9333099668095337e-06   -2.0535880500924687e-05
-6.600931584815018e-05   0.0   -4.419353126629668e-05
-6.600931584815018e-05   0.0   -4.419353126629668e-05
-6.600931584815018e-05   0.0   -4.419353126629668e-05
-6.600931584815018e-05   0.0   -4.419353126629668e-05
-3.933111155235689e-05   8.377704899691804e-06   5.29676549984053e-06
-3.933111155235689e-05   8.377704899691804e-06   5.29676549984053e-06
-3.933111155235689e-05   8.377704899691804e-06   5.29676549984053e-06
-3.933111155235689e-05   8.377704899691804e-06   5.29676549984053e-06
-3.943570756197195e-05   0.0   -4.01238742615021e-05
-3.943570756197195e-05   0.0   -4.01238742615021e-05
-3.943570756197195e-05   0.0   -4.01238742615021e-05
-3.943570756197195e-05   0.0   -4.01238742615021e-05
-6.806341169408849e-05   8.976950608332899e-06   2.202795593692574e-06
-6.806341169408849e-05   8.976950608332899e-06   2.202795593692574e-06
-6.806341169408849e-05   8.976950608332899e-06   2.202795593692574e-06
-6.806341169408849e-05   8.976950608332899e-06   2.202795593692574e-06
-5.272251170506097e-05   3.3913808373288107e-06   -2.001402919208415e-05
-5.272251170506097e-05   3.3913808373288107e-06   -2.001402919208415e-05
-5.272251170506097e-05   3.3913808373288107e-06   -2.001402919208415e-05
-5.272251170506097e-05   3.3913808373288107e-06   -2.001402919208415e-05
-6.806341169408861e-05   0.0   -4.551004462650185e-05
-6.806341169408861e-05   0.0   -4.551004462650185e-05
-6.806341169408861e-05   0.0   -4.551004462650185e-05
-6.806341169408861e-05   0.0   -4.551004462650185e-05
-3.943570756197188e-05   8.976950608332899e-06   7.588965958692316e-06
-3.943570756197188e-05   8.976950608332899e-06   7.588965958692316e-06
-3.943570756197188e-05   8.976950608332899e-06   7.588965958692316e-06
-3.943570756197188e-05   8.976950608332899e-06   7.588965958692316e-06
-3.940784959683282e-05   0.0   -4.0370773676897526e-05
-3.940784959683282e-05   0.0   -4.0370773676897526e-05
-3.940784959683282e-05   0.0   -4.0370773676897526e-05
-3.940784959683282e-05   0.0   -4.0370773676897526e-05
-7.249477659330416e-05   1.0231278383703707e-05   8.635337620332666e-06
-7.249477659330416e-05   1.0231278383703707e-05   8.635337620332666e-06
-7.249477659330416e-05   1.0231278383703707e-05   8.635337620332666e-06
-7.249477659330416e-05   1.0231278383703707e-05   8.635337620332666e-06
-5.373563064546062e-05   4.282725791336933e-06   -1.9060774070653147e-05
-5.373563064546062e-05   4.282725791336933e-06   -1.9060774070653147e-05
-5.373563064546062e-05   4.282725791336933e-06   -1.9060774070653147e-05
-5.373563064546062e-05   4.282725791336933e-06   -1.9060774070653147e-05
-4.0130614229649467e-05   0.0   -3.730096414916913e-05
-4.0130614229649467e-05   0.0   -3.730096414916913e-05
-4.0130614229649467e-05   0.0   -3.730096414916913e-05
-4.0130614229649467e-05   0.0   -3.730096414916913e-05
-1.8283012766769095e-05   2.556484581316006e-06   6.455957044210718e-07
-1.8283012766769095e-05   2.556484581316006e-06   6.455957044210718e-07
-1.8283012766769095e-05   2.556484581316006e-06   6.455957044210718e-07
-1.8283012766769095e-05   2.556484581316006e-06   6.455957044210718e-07
-1.7578178744415648e-05   0.0   -3.698083739319718e-05
-1.7578178744415648e-05   0.0   -3.698083739319718e-05
-1.7578178744415648e-05   0.0   -3.698083739319718e-05
-1.7578178744415648e-05   0.0   -3.698083739319718e-05
-3.933111155235689e-05   3.643451555473913e-06   -2.912020313246245e-06
-3.933111155235689e-05   3.643451555473913e-06   -2.912020313246245e-06
-3.933111155235689e-05   3.643451555473913e-06   -2.912020313246245e-06
-3.933111155235689e-05   3.643451555473913e-06   -2.912020313246245e-06
-2.8854396487032522e-05   2.66772296643236e-07   -1.8347204533488317e-05
-2.8854396487032522e-05   2.66772296643236e-07   -1.8347204533488317e-05
-2.8854396487032522e-05   2.66772296643236e-07   -1.8347204533488317e-05
-2.8854396487032522e-05   2.66772296643236e-07   -1.8347204533488317e-05
-3.9331111552356856e-05   0.0   -3.916690832648156e-05
-3.9331111552356856e-05   0.0   -3.916690832648156e-05
-3.9331111552356856e-05   0.0   -3.916690832648156e-05
-3.9331111552356856e-05   0.0   -3.916690832648156e-05
-1.7578178744415648e-05   3.643451555473913e-06   -7.259493799619073e-07
-1.7578178744415648e-05   3.643451555473913e-06   -7.259493799619073e-07
-1.7578178744415648e-05   3.643451555473913e-06   -7.259493799619073e-07
-1.7578178744415648e-05   3.643451555473913e-06   -7.259493799619073e-07
-1.7179736883791205e-05   0.0   -3.74437387167467e-05
-1.7179736883791205e-05   0.0   -3.74437387167467e-05
-1.7179736883791205e-05   0.0   -3.74437387167467e-05
-1.7179736883791205e-05   0.0   -3.74437387167467e-05
-3.943570756197195e-05   4.466892574592234e-06   -3.030589797867585e-06
-3.943570756197195e-05   4.466892574592234e-06   -3.030589797867585e-06
-3.943570756197195e-05   4.466892574592234e-06   -3.030589797867585e-06
-3.943570756197195e-05   4.466892574592234e-06   -3.030589797867585e-06
-2.8255424218074053e-05   1.435974674779026e-06   -1.9845844631142778e-05
-2.8255424218074053e-05   1.435974674779026e-06   -1.9845844631142778e-05
-2.8255424218074053e-05   1.435974674779026e-06   -1.9845844631142778e-05
-2.8255424218074053e-05   1.435974674779026e-06   -1.9845844631142778e-05
-3.943570756197195e-05   0.0   -4.01238742615021e-05
-3.943570756197195e-05   0.0   -4.01238742615021e-05
-3.943570756197195e-05   0.0   -4.01238742615021e-05
-3.943570756197195e-05   0.0   -4.01238742615021e-05
-1.7179736883791236e-05   4.466892574592234e-06   -3.5045425311224906e-07
-1.7179736883791236e-05   4.466892574592234e-06   -3.5045425311224906e-07
-1.7179736883791236e-05   4.466892574592234e-06   -3.5045425311224906e-07
-1.7179736883791236e-05   4.466892574592234e-06   -3.5045425311224906e-07
-1.6815879558096204e-05   0.0   -3.725122304629236e-05
-1.6815879558096204e-05   0.0   -3.725122304629236e-05
-1.6815879558096204e-05   0.0   -3.725122304629236e-05
-1.6815879558096204e-05   0.0   -3.725122304629236e-05
-3.9407849596832716e-05   5.199251051008543e-06   -2.717490279003154e-06
-3.9407849596832716e-05   5.199251051008543e-06   -2.717490279003154e-06
-3.9407849596832716e-05   5.199251051008543e-06   -2.717490279003154e-06
-3.9407849596832716e-05   5.199251051008543e-06   -2.717490279003154e-06
-2.8125793560034066e-05   2.3938760126747624e-06   -1.9837691984000774e-05
-2.8125793560034066e-05   2.3938760126747624e-06   -1.9837691984000774e-05
-2.8125793560034066e-05   2.3938760126747624e-06   -1.9837691984000774e-05
-2.8125793560034066e-05   2.3938760126747624e-06   -1.9837691984000774e-05
-1.828301276676913e-05   0.0   -3.576707340037952e-05
-1.828301276676913e-05   0.0   -3.576707340037952e-05
-1.828301276676913e-05   0.0   -3.576707340037952e-05
-1.828301276676913e-05   0.0   -3.576707340037952e-05
2.353461134118535e-06   -3.292025185593596e-07   -1.570471743368999e-06
2.353461134118535e-06   -3.292025185593596e-07   -1.570471743368999e-06
2.353461134118535e-06   -3.292025185593596e-07   -1.570471743368999e-06
2.353461134118535e-06   -3.292025185593596e-07   -1.570471743368999e-06
2.8062873733698412e-06   0.0   -3.659283592382812e-05
2.8062873733698412e-06   0.0   -3.659283592382812e-05
2.8062873733698412e-06   0.0   -3.659283592382812e-05
2.8062873733698412e-06   0.0   -3.659283592382812e-05
-1.7578178744415648e-05   6.466691156149865e-07   -3.0067271968880246e-06
-1.7578178744415648e-05   6.466691156149865e-07   -3.0067271968880246e-06
-1.7578178744415648e-05   6.466691156149865e-07   -3.0067271968880246e-06
-1.7578178744415648e-05   6.466691156149865e-07   -3.0067271968880246e-06
-7.738362696699625e-06   -6.881354362072703e-07   -1.860553787865469e-05
-7.738362696699625e-06   -6.881354362072703e-07   -1.860553787865469e-05
-7.738362696699625e-06   -6.881354362072703e-07   -1.860553787865469e-05
-7.738362696699625e-06   -6.881354362072703e-07   -1.860553787865469e-05
-1.757817874441568e-05   0.0   -3.6980837393197246e-05
-1.757817874441568e-05   0.0   -3.6980837393197246e-05
-1.757817874441568e-05   0.0   -3.6980837393197246e-05
-1.757817874441568e-05   0.0   -3.6980837393197246e-05
2.8062873733698463e-06   6.466691156149865e-07   -2.6187257275190295e-06
2.8062873733698463e-06   6.466691156149865e-07   -2.6187257275190295e-06
2.8062873733698463e-06   6.466691156149865e-07   -2.6187257275190295e-06
2.8062873733698463e-06   6.466691156149865e-07   -2.6187257275190295e-06
3.164522506274024e-06   0.0   -3.6539998659226505e-05
3.164522506274024e-06   0.0   -3.6539998659226505e-05
3.164522506274024e-06   0.0   -3.6539998659226505e-05
3.164522506274024e-06   0.0   -3.6539998659226505e-05
-1.7179736883791175e-05   1.506233429200315e-06   -3.536639733304655e-06
-1.7179736883791175e-05   1.506233429200315e-06   -3.536639733304655e-06
-1.7179736883791175e-05   1.506233429200315e-06   -3.536639733304655e-06
-1.7179736883791175e-05   1.506233429200315e-06   -3.536639733304655e-06
-7.206828119070812e-06   3.673656116422271e-07   -1.9474833650637105e-05
-7.206828119070812e-06   3.673656116422271e-07   -1.9474833650637105e-05
-7.206828119070812e-06   3.673656116422271e-07   -1.9474833650637105e-05
-7.206828119070812e-06   3.673656116422271e-07   -1.9474833650637105e-05
-1.7179736883791236e-05   0.0   -3.7443738716746763e-05
-1.7179736883791236e-05   0.0   -3.7443738716746763e-05
-1.7179736883791236e-05   0.0   -3.7443738716746763e-05
-1.7179736883791236e-05   0.0   -3.7443738716746763e-05
3.1645225062740296e-06   1.506233429200315e-06   -2.632899675784468e-06
3.1645225062740296e-06   1.506233429200315e-06   -2.632899675784468e-06
3.1645225062740296e-06   1.506233429200315e-06   -2.632899675784468e-06
3.1645225062740296e-06   1.506233429200315e-06   -2.632899675784468e-06
3.6444300714173303e-06   0.0   -3.575035188804288e-05
3.6444300714173303e-06   0.0   -3.575035188804288e-05
3.6444300714173303e-06   0.0   -3.575035188804288e-05
3.6444300714173303e-06   0.0   -3.575035188804288e-05
-1.6815879558096187e-05   2.501451930415747e-06   -3.1507069971031297e-06
-1.6815879558096187e-05   2.501451930415747e-06   -3.1507069971031297e-06
-1.6815879558096187e-05   2.501451930415747e-06   -3.1507069971031297e-06
-1.6815879558096187e-05   2.501451930415747e-06   -3.1507069971031297e-06
-6.767653406186938e-06   1.4111556905865188e-06   -1.9243572839721e-05
-6.767653406186938e-06   1.4111556905865188e-06   -1.9243572839721e-05
-6.767653406186938e-06   1.4111556905865188e-06   -1.9243572839721e-05
-6.767653406186938e-06   1.4111556905865188e-06   -1.9243572839721e-05
2.353461134118539e-06   0.0   -3.5964594911515134e-05
2.353461134118539e-06   0.0   -3.5964594911515134e-05
2.353461134118539e-06   0.0   -3.5964594911515134e-05
2.353461134118539e-06   0.0   -3.5964594911515134e-05
2.4759422192732832e-05   -2.904060653176605e-06   -3.6376287239711934e-07
2.4759422192732832e-05   -2.904060653176605e-06   -3.6376287239711934e-07
2.4759422192732832e-05   -2.904060653176605e-06   -3.6376287239711934e-07
2.4759422192732832e-05   -2.904060653176605e-06   -3.6376287239711934e-07
2.4811015237054504e-05   0.0   -3.7905332735747304e-05
2.4811015237054504e-05   0.0   -3.7905332735747304e-05
2.4811015237054504e-05   0.0   -3.7905332735747304e-05
2.4811015237054504e-05   0.0   -3.7905332735747304e-05
2.8062873733698463e-06   -2.187494686531753e-06   8.171051564617319e-08
2.8062873733698463e-06   -2.187494686531753e-06   8.171051564617319e-08
2.8062873733698463e-06   -2.187494686531753e-06   8.171051564617319e-08
2.8062873733698463e-06   -2.187494686531753e-06   8.171051564617319e-08
1.3582238185586522e-05   -1.6172815201934772e-06   -1.8220335404517902e-05
1.3582238185586522e-05   -1.6172815201934772e-06   -1.8220335404517902e-05
1.3582238185586522e-05   -1.6172815201934772e-06   -1.8220335404517902e-05
1.3582238185586522e-05   -1.6172815201934772e-06   -1.8220335404517902e-05
2.806287373369851e-06   0.0   -3.659283592382825e-05
2.806287373369851e-06   0.0   -3.659283592382825e-05
2.806287373369851e-06   0.0   -3.659283592382825e-05
2.806287373369851e-06   0.0   -3.659283592382825e-05
2.481101523705446e-05   -2.187494686531753e-06   -1.230786296272884e-06
2.481101523705446e-05   -2.187494686531753e-06   -1.230786296272884e-06
2.481101523705446e-05   -2.187494686531753e-06   -1.230786296272884e-06
2.481101523705446e-05   -2.187494686531753e-06   -1.230786296272884e-06
2.471127403164121e-05   0.0   -3.7364113104421794e-05
2.471127403164121e-05   0.0   -3.7364113104421794e-05
2.471127403164121e-05   0.0   -3.7364113104421794e-05
2.471127403164121e-05   0.0   -3.7364113104421794e-05
3.1645225062740296e-06   -1.373524075325368e-06   -6.28746116947943e-07
3.1645225062740296e-06   -1.373524075325368e-06   -6.28746116947943e-07
3.1645225062740296e-06   -1.373524075325368e-06   -6.28746116947943e-07
3.1645225062740296e-06   -1.373524075325368e-06   -6.28746116947943e-07
1.3758780702505531e-05   -6.42730983827957e-07   -1.8724318965565544e-05
1.3758780702505531e-05   -6.42730983827957e-07   -1.8724318965565544e-05
1.3758780702505531e-05   -6.42730983827957e-07   -1.8724318965565544e-05
1.3758780702505531e-05   -6.42730983827957e-07   -1.8724318965565544e-05
3.1645225062740296e-06   0.0   -3.653999865922657e-05
3.1645225062740296e-06   0.0   -3.653999865922657e-05
3.1645225062740296e-06   0.0   -3.653999865922657e-05
3.1645225062740296e-06   0.0   -3.653999865922657e-05
2.4711274031641167e-05   -1.3735240753253748e-06   -1.4528605621431646e-06
2.4711274031641167e-05   -1.3735240753253748e-06   -1.4528605621431646e-06
2.4711274031641167e-05   -1.3735240753253748e-06   -1.4528605621431646e-06
2.4711274031641167e-05   -1.3735240753253748e-06   -1.4528605621431646e-06
2.519612265091505e-05   0.0   -3.5918427898399314e-05
2.519612265091505e-05   0.0   -3.5918427898399314e-05
2.519612265091505e-05   0.0   -3.5918427898399314e-05
2.519612265091505e-05   0.0   -3.5918427898399314e-05
3.6444300714173367e-06   -2.801266839272889e-07   1.6913574445323786e-07
3.6444300714173367e-06   -2.801266839272889e-07   1.6913574445323786e-07
3.6444300714173367e-06   -2.801266839272889e-07   1.6913574445323786e-07
3.6444300714173367e-06   -2.801266839272889e-07   1.6913574445323786e-07
1.4180322578594539e-05   5.179756340227135e-07   -1.7869546491612083e-05
1.4180322578594539e-05   5.179756340227135e-07   -1.7869546491612083e-05
1.4180322578594539e-05   5.179756340227135e-07   -1.7869546491612083e-05
1.4180322578594539e-05   5.179756340227135e-07   -1.7869546491612083e-05
2.475942219273292e-05   0.0   -3.770703130342111e-05
2.475942219273292e-05   0.0   -3.770703130342111e-05
2.475942219273292e-05   0.0   -3.770703130342111e-05
2.475942219273292e-05   0.0   -3.770703130342111e-05
5.59379388763357e-05   -7.3668707103874545e-06   9.837040743017908e-06
5.59379388763357e-05   -7.3668707103874545e-06   9.837040743017908e-06
5.59379388763357e-05   -7.3668707103874545e-06   9.837040743017908e-06
5.59379388763357e-05   -7.3668707103874545e-06   9.837040743017908e-06
5.254458028626112e-05   0.0   -4.166375566320158e-05
5.254458028626112e-05   0.0   -4.166375566320158e-05
5.254458028626112e-05   0.0   -4.166375566320158e-05
5.254458028626112e-05   0.0   -4.166375566320158e-05
2.481101523705446e-05   -6.264038212423778e-06   8.317275679597018e-06
2.481101523705446e-05   -6.264038212423778e-06   8.317275679597018e-06
2.481101523705446e-05   -6.264038212423778e-06   8.317275679597018e-06
2.481101523705446e-05   -6.264038212423778e-06   8.317275679597018e-06
3.865200123949702e-05   -3.2972702998170604e-06   -1.6531095072037833e-05
3.865200123949702e-05   -3.2972702998170604e-06   -1.6531095072037833e-05
3.865200123949702e-05   -3.2972702998170604e-06   -1.6531095072037833e-05
3.865200123949702e-05   -3.2972702998170604e-06   -1.6531095072037833e-05
2.4811015237054484e-05   0.0   -3.790533273574728e-05
2.4811015237054484e-05   0.0   -3.790533273574728e-05
2.4811015237054484e-05   0.0   -3.790533273574728e-05
2.4811015237054484e-05   0.0   -3.790533273574728e-05
5.254458028626112e-05   -6.2640382124237915e-06   4.558852752142763e-06
5.254458028626112e-05   -6.2640382124237915e-06   4.558852752142763e-06
5.254458028626112e-05   -6.2640382124237915e-06   4.558852752142763e-06
5.254458028626112e-05   -6.2640382124237915e-06   4.558852752142763e-06
5.0982712326480984e-05   0.0   -4.0797614862809826e-05
5.0982712326480984e-05   0.0   -4.0797614862809826e-05
5.0982712326480984e-05   0.0   -4.0797614862809826e-05
5.0982712326480984e-05   0.0   -4.0797614862809826e-05
2.4711274031641167e-05   -5.722502930646697e-06   6.421617386977816e-06
2.4711274031641167e-05   -5.722502930646697e-06   6.421617386977816e-06
2.4711274031641167e-05   -5.722502930646697e-06   6.421617386977816e-06
2.4711274031641167e-05   -5.722502930646697e-06   6.421617386977816e-06
3.789686378176772e-05   -2.4102351058854357e-06   -1.7541726224756465e-05
3.789686378176772e-05   -2.4102351058854357e-06   -1.7541726224756465e-05
3.789686378176772e-05   -2.4102351058854357e-06   -1.7541726224756465e-05
3.789686378176772e-05   -2.4102351058854357e-06   -1.7541726224756465e-05
2.471127403164121e-05   0.0   -3.7364113104421794e-05
2.471127403164121e-05   0.0   -3.7364113104421794e-05
2.471127403164121e-05   0.0   -3.7364113104421794e-05
2.471127403164121e-05   0.0   -3.7364113104421794e-05
5.0982712326480896e-05   -5.722502930646697e-06   2.988115628589798e-06
5.0982712326480896e-05   -5.722502930646697e-06   2.988115628589798e-06
5.0982712326480896e-05   -5.722502930646697e-06   2.988115628589798e-06
5.0982712326480896e-05   -5.722502930646697e-06   2.988115628589798e-06
4.86529726038499e-05   0.0   -3.858420972337508e-05
4.86529726038499e-05   0.0   -3.858420972337508e-05
4.86529726038499e-05   0.0   -3.858420972337508e-05
4.86529726038499e-05   0.0   -3.858420972337508e-05
2.5196122650914982e-05   -4.442969708292928e-06   3.1763220231587877e-06
2.5196122650914982e-05   -4.442969708292928e-06   3.1763220231587877e-06
2.5196122650914982e-05   -4.442969708292928e-06   3.1763220231587877e-06
2.5196122650914982e-05   -4.442969708292928e-06   3.1763220231587877e-06
3.668212331774549e-05   -1.016747182461063e-06   -1.802274593705782e-05
3.668212331774549e-05   -1.016747182461063e-06   -1.802274593705782e-05
3.668212331774549e-05   -1.016747182461063e-06   -1.802274593705782e-05
3.668212331774549e-05   -1.016747182461063e-06   -1.802274593705782e-05
-5.4666632596673674e-05   6.976526895806485e-06   -3.592633094148709e-05
-5.4666632596673674e-05   6.976526895806485e-06   -3.592633094148709e-05
-5.4666632596673674e-05   6.976526895806485e-06   -3.592633094148709e-05
-5.4666632596673674e-05   6.976526895806485e-06   -3.592633094148709e-05