<?xml version="1.0"?> 
<VTKFile type="UnstructuredGrid"> 
   <UnstructuredGrid> 
      <Piece NumberOfPoints="6000"  NumberOfCells="1500">  
          <Points>  
             <DataArray type="Float64" NumberOfComponents="3" format="ascii">   
-500.0   0.0   0.0
-450.0   0.0   0.0
-500.0   30.0   0.0
-500.0   0.0   16.666666666666668
-450.0   0.0   0.0
-450.0   30.0   0.0
-500.0   30.0   0.0
-450.0   30.0   16.666666666666668
-500.0   0.0   16.666666666666668
-500.0   30.0   16.666666666666668
-450.0   30.0   16.666666666666668
-500.0   30.0   0.0
-500.0   0.0   16.666666666666668
-450.0   30.0   16.666666666666668
-450.0   0.0   16.666666666666668
-450.0   0.0   0.0
-500.0   0.0   16.666666666666668
-450.0   30.0   16.666666666666668
-450.0   0.0   0.0
-500.0   30.0   0.0
-500.0   0.0   16.666666666666668
-450.0   0.0   16.666666666666668
-500.0   30.0   16.666666666666668
-500.0   0.0   33.333333333333336
-450.0   0.0   16.666666666666668
-450.0   30.0   16.666666666666668
-500.0   30.0   16.666666666666668
-450.0   30.0   33.333333333333336
-500.0   0.0   33.333333333333336
-500.0   30.0   33.333333333333336
-450.0   30.0   33.333333333333336
-500.0   30.0   16.666666666666668
-500.0   0.0   33.333333333333336
-450.0   30.0   33.333333333333336
-450.0   0.0   33.333333333333336
-450.0   0.0   16.666666666666668
-500.0   0.0   33.333333333333336
-450.0   30.0   33.333333333333336
-450.0   0.0   16.666666666666668
-500.0   30.0   16.666666666666668
-500.0   0.0   33.333333333333336
-450.0   0.0   33.333333333333336
-500.0   30.0   33.333333333333336
-500.0   0.0   50.0
-450.0   0.0   33.333333333333336
-450.0   30.0   33.333333333333336
-500.0   30.0   33.333333333333336
-450.0   30.0   50.0
-500.0   0.0   50.0
-500.0   30.0   50.0
-450.0   30.0   50.0
-500.0   30.0   33.333333333333336
-500.0   0.0   50.0
-450.0   30.0   50.0
-450.0   0.0   50.0
-450.0   0.0   33.333333333333336
-500.0   0.0   50.0
-450.0   30.0   50.0
-450.0   0.0   33.333333333333336
-500.0   30.0   33.333333333333336
-500.0   30.0   0.0
-450.0   30.0   0.0
-500.0   60.0   0.0
-500.0   30.0   16.666666666666668
-450.0   30.0   0.0
-450.0   60.0   0.0
-500.0   60.0   0.0
-450.0   60.0   16.666666666666668
-500.0   30.0   16.666666666666668
-500.0   60.0   16.666666666666668
-450.0   60.0   16.666666666666668
-500.0   60.0   0.0
-500.0   30.0   16.666666666666668
-450.0   60.0   16.666666666666668
-450.0   30.0   16.666666666666668
-450.0   30.0   0.0
-500.0   30.0   16.666666666666668
-450.0   60.0   16.666666666666668
-450.0   30.0   0.0
-500.0   60.0   0.0
-500.0   30.0   16.666666666666668
-450.0   30.0   16.666666666666668
-500.0   60.0   16.666666666666668
-500.0   30.0   33.333333333333336
-450.0   30.0   16.666666666666668
-450.0   60.0   16.666666666666668
-500.0   60.0   16.666666666666668
-450.0   60.0   33.333333333333336
-500.0   30.0   33.333333333333336
-500.0   60.0   33.333333333333336
-450.0   60.0   33.333333333333336
-500.0   60.0   16.666666666666668
-500.0   30.0   33.333333333333336
-450.0   60.0   33.333333333333336
-450.0   30.0   33.333333333333336
-450.0   30.0   16.666666666666668
-500.0   30.0   33.333333333333336
-450.0   60.0   33.333333333333336
-450.0   30.0   16.666666666666668
-500.0   60.0   16.666666666666668
-500.0   30.0   33.333333333333336
-450.0   30.0   33.333333333333336
-500.0   60.0   33.333333333333336
-500.0   30.0   50.0
-450.0   30.0   33.333333333333336
-450.0   60.0   33.333333333333336
-500.0   60.0   33.333333333333336
-450.0   60.0   50.0
-500.0   30.0   50.0
-500.0   60.0   50.0
-450.0   60.0   50.0
-500.0   60.0   33.333333333333336
-500.0   30.0   50.0
-450.0   60.0   50.0
-450.0   30.0   50.0
-450.0   30.0   33.333333333333336
-500.0   30.0   50.0
-450.0   60.0   50.0
-450.0   30.0   33.333333333333336
-500.0   60.0   33.333333333333336
-500.0   60.0   0.0
-450.0   60.0   0.0
-500.0   90.0   0.0
-500.0   60.0   16.666666666666668
-450.0   60.0   0.0
-450.0   90.0   0.0
-500.0   90.0   0.0
-450.0   90.0   16.666666666666668
-500.0   60.0   16.666666666666668
-500.0   90.0   16.666666666666668
-450.0   90.0   16.666666666666668
-500.0   90.0   0.0
-500.0   60.0   16.666666666666668
-450.0   90.0   16.666666666666668
-450.0   60.0   16.666666666666668
-450.0   60.0   0.0
-500.0   60.0   16.666666666666668
-450.0   90.0   16.666666666666668
-450.0   60.0   0.0
-500.0   90.0   0.0
-500.0   60.0   16.666666666666668
-450.0   60.0   16.666666666666668
-500.0   90.0   16.666666666666668
-500.0   60.0   33.333333333333336
-450.0   60.0   16.666666666666668
-450.0   90.0   16.666666666666668
-500.0   90.0   16.666666666666668
-450.0   90.0   33.333333333333336
-500.0   60.0   33.333333333333336
-500.0   90.0   33.333333333333336
-450.0   90.0   33.333333333333336
-500.0   90.0   16.666666666666668
-500.0   60.0   33.333333333333336
-450.0   90.0   33.333333333333336
-450.0   60.0   33.333333333333336
-450.0   60.0   16.666666666666668
-500.0   60.0   33.333333333333336
-450.0   90.0   33.333333333333336
-450.0   60.0   16.666666666666668
-500.0   90.0   16.666666666666668
-500.0   60.0   33.333333333333336
-450.0   60.0   33.333333333333336
-500.0   90.0   33.333333333333336
-500.0   60.0   50.0
-450.0   60.0   33.333333333333336
-450.0   90.0   33.333333333333336
-500.0   90.0   33.333333333333336
-450.0   90.0   50.0
-500.0   60.0   50.0
-500.0   90.0   50.0
-450.0   90.0   50.0
-500.0   90.0   33.333333333333336
-500.0   60.0   50.0
-450.0   90.0   50.0
-450.0   60.0   50.0
-450.0   60.0   33.333333333333336
-500.0   60.0   50.0
-450.0   90.0   50.0
-450.0   60.0   33.333333333333336
-500.0   90.0   33.333333333333336
-500.0   90.0   0.0
-450.0   90.0   0.0
-500.0   120.0   0.0
-500.0   90.0   16.666666666666668
-450.0   90.0   0.0
-450.0   120.0   0.0
-500.0   120.0   0.0
-450.0   120.0   16.666666666666668
-500.0   90.0   16.666666666666668
-500.0   120.0   16.666666666666668
-450.0   120.0   16.666666666666668
-500.0   120.0   0.0
-500.0   90.0   16.666666666666668
-450.0   120.0   16.666666666666668
-450.0   90.0   16.666666666666668
-450.0   90.0   0.0
-500.0   90.0   16.666666666666668
-450.0   120.0   16.666666666666668
-450.0   90.0   0.0
-500.0   120.0   0.0
-500.0   90.0   16.666666666666668
-450.0   90.0   16.666666666666668
-500.0   120.0   16.666666666666668
-500.0   90.0   33.333333333333336
-450.0   90.0   16.666666666666668
-450.0   120.0   16.666666666666668
-500.0   120.0   16.666666666666668
-450.0   120.0   33.333333333333336
-500.0   90.0   33.333333333333336
-500.0   120.0   33.333333333333336
-450.0   120.0   33.333333333333336
-500.0   120.0   16.666666666666668
-500.0   90.0   33.333333333333336
-450.0   120.0   33.333333333333336
-450.0   90.0   33.333333333333336
-450.0   90.0   16.666666666666668
-500.0   90.0   33.333333333333336
-450.0   120.0   33.333333333333336
-450.0   90.0   16.666666666666668
-500.0   120.0   16.666666666666668
-500.0   90.0   33.333333333333336
-450.0   90.0   33.333333333333336
-500.0   120.0   33.333333333333336
-500.0   90.0   50.0
-450.0   90.0   33.333333333333336
-450.0   120.0   33.333333333333336
-500.0   120.0   33.333333333333336
-450.0   120.0   50.0
-500.0   90.0   50.0
-500.0   120.0   50.0
-450.0   120.0   50.0
-500.0   120.0   33.333333333333336
-500.0   90.0   50.0
-450.0   120.0   50.0
-450.0   90.0   50.0
-450.0   90.0   33.333333333333336
-500.0   90.0   50.0
-450.0   120.0   50.0
-450.0   90.0   33.333333333333336
-500.0   120.0   33.333333333333336
-500.0   120.0   0.0
-450.0   120.0   0.0
-500.0   150.0   0.0
-500.0   120.0   16.666666666666668
-450.0   120.0   0.0
-450.0   150.0   0.0
-500.0   150.0   0.0
-450.0   150.0   16.666666666666668
-500.0   120.0   16.666666666666668
-500.0   150.0   16.666666666666668
-450.0   150.0   16.666666666666668
-500.0   150.0   0.0
-500.0   120.0   16.666666666666668
-450.0   150.0   16.666666666666668
-450.0   120.0   16.666666666666668
-450.0   120.0   0.0
-500.0   120.0   16.666666666666668
-450.0   150.0   16.666666666666668
-450.0   120.0   0.0
-500.0   150.0   0.0
-500.0   120.0   16.666666666666668
-450.0   120.0   16.666666666666668
-500.0   150.0   16.666666666666668
-500.0   120.0   33.333333333333336
-450.0   120.0   16.666666666666668
-450.0   150.0   16.666666666666668
-500.0   150.0   16.666666666666668
-450.0   150.0   33.333333333333336
-500.0   120.0   33.333333333333336
-500.0   150.0   33.333333333333336
-450.0   150.0   33.333333333333336
-500.0   150.0   16.666666666666668
-500.0   120.0   33.333333333333336
-450.0   150.0   33.333333333333336
-450.0   120.0   33.333333333333336
-450.0   120.0   16.666666666666668
-500.0   120.0   33.333333333333336
-450.0   150.0   33.333333333333336
-450.0   120.0   16.666666666666668
-500.0   150.0   16.666666666666668
-500.0   120.0   33.333333333333336
-450.0   120.0   33.333333333333336
-500.0   150.0   33.333333333333336
-500.0   120.0   50.0
-450.0   120.0   33.333333333333336
-450.0   150.0   33.333333333333336
-500.0   150.0   33.333333333333336
-450.0   150.0   50.0
-500.0   120.0   50.0
-500.0   150.0   50.0
-450.0   150.0   50.0
-500.0   150.0   33.333333333333336
-500.0   120.0   50.0
-450.0   150.0   50.0
-450.0   120.0   50.0
-450.0   120.0   33.333333333333336
-500.0   120.0   50.0
-450.0   150.0   50.0
-450.0   120.0   33.333333333333336
-500.0   150.0   33.333333333333336
-450.0   0.0   0.0
-400.0   0.0   0.0
-450.0   30.0   0.0
-450.0   0.0   16.666666666666668
-400.0   0.0   0.0
-400.0   30.0   0.0
-450.0   30.0   0.0
-400.0   30.0   16.666666666666668
-450.0   0.0   16.666666666666668
-450.0   30.0   16.666666666666668
-400.0   30.0   16.666666666666668
-450.0   30.0   0.0
-450.0   0.0   16.666666666666668
-400.0   30.0   16.666666666666668
-400.0   0.0   16.666666666666668
-400.0   0.0   0.0
-450.0   0.0   16.666666666666668
-400.0   30.0   16.666666666666668
-400.0   0.0   0.0
-450.0   30.0   0.0
-450.0   0.0   16.666666666666668
-400.0   0.0   16.666666666666668
-450.0   30.0   16.666666666666668
[...]
          <PointData>  
             <DataArray type="Float64" NumberOfComponents="3" Name="Strains" format="ascii">   
-8.811470777283087e-05   0.0   -5.784762011345741e-05
-8.811470777283087e-05   0.0   -5.784762011345741e-05
-8.811470777283087e-05   0.0   -5.784762011345741e-05
-8.811470777283087e-05   0.0   -5.784762011345741e-05
-5.6067336866103484e-05   9.759060494663978e-06   1.4201010278864926e-06
-5.6067336866103484e-05   9.759060494663978e-06   1.4201010278864926e-06
-5.6067336866103484e-05   9.759060494663978e-06   1.4201010278864926e-06
-5.6067336866103484e-05   9.759060494663978e-06   1.4201010278864926e-06
-5.495745030111299e-05   0.0   -5.4599083097146016e-05
-5.495745030111299e-05   0.0   -5.4599083097146016e-05
-5.495745030111299e-05   0.0   -5.4599083097146016e-05
-5.495745030111299e-05   0.0   -5.4599083097146016e-05
-9.221490587969525e-05   1.171249537274456e-05   4.691789768445872e-07
-9.221490587969525e-05   1.171249537274456e-05   4.691789768445872e-07
-9.221490587969525e-05   1.171249537274456e-05   4.691789768445872e-07
-9.221490587969525e-05   1.171249537274456e-05   4.691789768445872e-07
-7.15360790369718e-05   2.707114180259492e-06   -2.859230371220341e-05
-7.15360790369718e-05   2.707114180259492e-06   -2.859230371220341e-05
-7.15360790369718e-05   2.707114180259492e-06   -2.859230371220341e-05
-7.15360790369718e-05   2.707114180259492e-06   -2.859230371220341e-05
-9.22149058796954e-05   0.0   -6.162658032079276e-05
-9.22149058796954e-05   0.0   -6.162658032079276e-05
-9.22149058796954e-05   0.0   -6.162658032079276e-05
-9.22149058796954e-05   0.0   -6.162658032079276e-05
-5.495745030111299e-05   1.1712495372744587e-05   7.49667620049135e-06
-5.495745030111299e-05   1.1712495372744587e-05   7.49667620049135e-06
-5.495745030111299e-05   1.1712495372744587e-05   7.49667620049135e-06
-5.495745030111299e-05   1.1712495372744587e-05   7.49667620049135e-06
-5.5111298062355486e-05   0.0   -5.593516943382378e-05
-5.5111298062355486e-05   0.0   -5.593516943382378e-05
-5.5111298062355486e-05   0.0   -5.593516943382378e-05
-5.5111298062355486e-05   0.0   -5.593516943382378e-05
-9.509391057788189e-05   1.2548479668887105e-05   3.173430290721543e-06
-9.509391057788189e-05   1.2548479668887105e-05   3.173430290721543e-06
-9.509391057788189e-05   1.2548479668887105e-05   3.173430290721543e-06
-9.509391057788189e-05   1.2548479668887105e-05   3.173430290721543e-06
-7.366310197102532e-05   4.742842405807481e-06   -2.78612016961916e-05
-7.366310197102532e-05   4.742842405807481e-06   -2.78612016961916e-05
-7.366310197102532e-05   4.742842405807481e-06   -2.78612016961916e-05
-7.366310197102532e-05   4.742842405807481e-06   -2.78612016961916e-05
-9.509391057788205e-05   0.0   -6.346425723515606e-05
-9.509391057788205e-05   0.0   -6.346425723515606e-05
-9.509391057788205e-05   0.0   -6.346425723515606e-05
-9.509391057788205e-05   0.0   -6.346425723515606e-05
-5.511129806235539e-05   1.2548479668887105e-05   1.070251809205379e-05
-5.511129806235539e-05   1.2548479668887105e-05   1.070251809205379e-05
-5.511129806235539e-05   1.2548479668887105e-05   1.070251809205379e-05
-5.511129806235539e-05   1.2548479668887105e-05   1.070251809205379e-05
-5.5081043023661284e-05   0.0   -5.6278670412893445e-05
-5.5081043023661284e-05   0.0   -5.6278670412893445e-05
-5.5081043023661284e-05   0.0   -5.6278670412893445e-05
-5.5081043023661284e-05   0.0   -5.6278670412893445e-05
-0.000101297213126545   1.4296246229896214e-05   1.2170532020641965e-05
-0.000101297213126545   1.4296246229896214e-05   1.2170532020641965e-05
-0.000101297213126545   1.4296246229896214e-05   1.2170532020641965e-05
-0.000101297213126545   1.4296246229896214e-05   1.2170532020641965e-05
-7.508747680077153e-05   5.9879890185521705e-06   -2.652740752884071e-05
-7.508747680077153e-05   5.9879890185521705e-06   -2.652740752884071e-05
-7.508747680077153e-05   5.9879890185521705e-06   -2.652740752884071e-05
-7.508747680077153e-05   5.9879890185521705e-06   -2.652740752884071e-05
-5.606733686610358e-05   0.0   -5.199218381665902e-05
-5.606733686610358e-05   0.0   -5.199218381665902e-05
-5.606733686610358e-05   0.0   -5.199218381665902e-05
-5.606733686610358e-05   0.0   -5.199218381665902e-05
-2.553468900692002e-05   3.5787844187875733e-06   1.0428332665860966e-06
-2.553468900692002e-05   3.5787844187875733e-06   1.0428332665860966e-06
-2.553468900692002e-05   3.5787844187875733e-06   1.0428332665860966e-06
-2.553468900692002e-05   3.5787844187875733e-06   1.0428332665860966e-06
-2.455778962996646e-05   0.0   -5.1541568491516415e-05
-2.455778962996646e-05   0.0   -5.1541568491516415e-05
-2.455778962996646e-05   0.0   -5.1541568491516415e-05
-2.455778962996646e-05   0.0   -5.1541568491516415e-05
-5.495745030111299e-05   5.095857676049178e-06   -3.932981978568544e-06
-5.495745030111299e-05   5.095857676049178e-06   -3.932981978568544e-06
-5.495745030111299e-05   5.095857676049178e-06   -3.932981978568544e-06
-5.495745030111299e-05   5.095857676049178e-06   -3.932981978568544e-06
-4.0312563248034974e-05   3.755127709520917e-07   -2.5508920123973464e-05
-4.0312563248034974e-05   3.755127709520917e-07   -2.5508920123973464e-05
-4.0312563248034974e-05   3.755127709520917e-07   -2.5508920123973464e-05
-4.0312563248034974e-05   3.755127709520917e-07   -2.5508920123973464e-05
-5.4957450301112935e-05   0.0   -5.459908309714597e-05
-5.4957450301112935e-05   0.0   -5.459908309714597e-05
-5.4957450301112935e-05   0.0   -5.459908309714597e-05
-5.4957450301112935e-05   0.0   -5.459908309714597e-05
-2.455778962996646e-05   5.095857676049178e-06   -8.754673729390437e-07
-2.455778962996646e-05   5.095857676049178e-06   -8.754673729390437e-07
-2.455778962996646e-05   5.095857676049178e-06   -8.754673729390437e-07
-2.455778962996646e-05   5.095857676049178e-06   -8.754673729390437e-07
-2.4008666051393642e-05   0.0   -5.2188318065796244e-05
-2.4008666051393642e-05   0.0   -5.2188318065796244e-05
-2.4008666051393642e-05   0.0   -5.2188318065796244e-05
-2.4008666051393642e-05   0.0   -5.2188318065796244e-05
-5.5111298062355486e-05   6.244752280045742e-06   -4.097449415554113e-06
-5.5111298062355486e-05   6.244752280045742e-06   -4.097449415554113e-06
-5.5111298062355486e-05   6.244752280045742e-06   -4.097449415554113e-06
-5.5111298062355486e-05   6.244752280045742e-06   -4.097449415554113e-06
-3.9483058176253326e-05   2.0089708594580653e-06   -2.7603047040038382e-05
-3.9483058176253326e-05   2.0089708594580653e-06   -2.7603047040038382e-05
-3.9483058176253326e-05   2.0089708594580653e-06   -2.7603047040038382e-05
-3.9483058176253326e-05   2.0089708594580653e-06   -2.7603047040038382e-05
-5.5111298062355486e-05   0.0   -5.593516943382378e-05
-5.5111298062355486e-05   0.0   -5.593516943382378e-05
-5.5111298062355486e-05   0.0   -5.593516943382378e-05
-5.5111298062355486e-05   0.0   -5.593516943382378e-05
-2.4008666051393683e-05   6.244752280045742e-06   -3.5059804752667057e-07
-2.4008666051393683e-05   6.244752280045742e-06   -3.5059804752667057e-07
-2.4008666051393683e-05   6.244752280045742e-06   -3.5059804752667057e-07
-2.4008666051393683e-05   6.244752280045742e-06   -3.5059804752667057e-07
-2.3508457373623193e-05   0.0   -5.1918609024739805e-05
-2.3508457373623193e-05   0.0   -5.1918609024739805e-05
-2.3508457373623193e-05   0.0   -5.1918609024739805e-05
-2.3508457373623193e-05   0.0   -5.1918609024739805e-05
-5.508104302366114e-05   7.266768980255972e-06   -3.657694329496617e-06
-5.508104302366114e-05   7.266768980255972e-06   -3.657694329496617e-06
-5.508104302366114e-05   7.266768980255972e-06   -3.657694329496617e-06
-5.508104302366114e-05   7.266768980255972e-06   -3.657694329496617e-06
-3.9309877717989326e-05   3.3471336742366107e-06   -2.7591188655338212e-05
-3.9309877717989326e-05   3.3471336742366107e-06   -2.7591188655338212e-05
-3.9309877717989326e-05   3.3471336742366107e-06   -2.7591188655338212e-05
-3.9309877717989326e-05   3.3471336742366107e-06   -2.7591188655338212e-05
-2.5534689006920064e-05   0.0   -4.9844913165386466e-05
-2.5534689006920064e-05   0.0   -4.9844913165386466e-05
-2.5534689006920064e-05   0.0   -4.9844913165386466e-05
-2.5534689006920064e-05   0.0   -4.9844913165386466e-05
3.3119515204467935e-06   -4.5883749773854637e-07   -2.0424814517514496e-06
3.3119515204467935e-06   -4.5883749773854637e-07   -2.0424814517514496e-06
3.3119515204467935e-06   -4.5883749773854637e-07   -2.0424814517514496e-06
3.3119515204467935e-06   -4.5883749773854637e-07   -2.0424814517514496e-06
3.936034150391882e-06   0.0   -5.099942451446146e-05
3.936034150391882e-06   0.0   -5.099942451446146e-05
3.936034150391882e-06   0.0   -5.099942451446146e-05
3.936034150391882e-06   0.0   -5.099942451446146e-05
-2.455778962996646e-05   9.035732950914274e-07   -4.05186219091917e-06
-2.455778962996646e-05   9.035732950914274e-07   -4.05186219091917e-06
-2.455778962996646e-05   9.035732950914274e-07   -4.05186219091917e-06
-2.455778962996646e-05   9.035732950914274e-07   -4.05186219091917e-06
-1.0799327428264065e-05   -9.620927908959745e-07   -2.5863232875497355e-05
-1.0799327428264065e-05   -9.620927908959745e-07   -2.5863232875497355e-05
-1.0799327428264065e-05   -9.620927908959745e-07   -2.5863232875497355e-05
-1.0799327428264065e-05   -9.620927908959745e-07   -2.5863232875497355e-05
-2.4557789629966505e-05   0.0   -5.15415684915165e-05
-2.4557789629966505e-05   0.0   -5.15415684915165e-05
-2.4557789629966505e-05   0.0   -5.15415684915165e-05
-2.4557789629966505e-05   0.0   -5.15415684915165e-05
3.936034150391889e-06   9.035732950914274e-07   -3.5097182138643085e-06
3.936034150391889e-06   9.035732950914274e-07   -3.5097182138643085e-06
3.936034150391889e-06   9.035732950914274e-07   -3.5097182138643085e-06
3.936034150391889e-06   9.035732950914274e-07   -3.5097182138643085e-06
4.428750660909842e-06   0.0   -5.092637444947022e-05
4.428750660909842e-06   0.0   -5.092637444947022e-05
4.428750660909842e-06   0.0   -5.092637444947022e-05
4.428750660909842e-06   0.0   -5.092637444947022e-05
-2.4008666051393602e-05   2.1032393605433794e-06   -4.792623545290438e-06
-2.4008666051393602e-05   2.1032393605433794e-06   -4.792623545290438e-06
-2.4008666051393602e-05   2.1032393605433794e-06   -4.792623545290438e-06
-2.4008666051393602e-05   2.1032393605433794e-06   -4.792623545290438e-06
-1.006451948452831e-05   5.12661701705166e-07   -2.707852122809638e-05
-1.006451948452831e-05   5.12661701705166e-07   -2.707852122809638e-05
-1.006451948452831e-05   5.12661701705166e-07   -2.707852122809638e-05
-1.006451948452831e-05   5.12661701705166e-07   -2.707852122809638e-05
-2.4008666051393683e-05   0.0   -5.218831806579633e-05
-2.4008666051393683e-05   0.0   -5.218831806579633e-05
-2.4008666051393683e-05   0.0   -5.218831806579633e-05
-2.4008666051393683e-05   0.0   -5.218831806579633e-05
4.42875066090985e-06   2.1032393605433794e-06   -3.5306799289644224e-06
4.42875066090985e-06   2.1032393605433794e-06   -3.5306799289644224e-06
4.42875066090985e-06   2.1032393605433794e-06   -3.5306799289644224e-06
4.42875066090985e-06   2.1032393605433794e-06   -3.5306799289644224e-06
5.0913239947759324e-06   0.0   -4.982299471603526e-05
5.0913239947759324e-06   0.0   -4.982299471603526e-05
5.0913239947759324e-06   0.0   -4.982299471603526e-05
5.0913239947759324e-06   0.0   -4.982299471603526e-05
-2.3508457373623173e-05   3.492690514507498e-06   -4.252306744074591e-06
-2.3508457373623173e-05   3.492690514507498e-06   -4.252306744074591e-06
-2.3508457373623173e-05   3.492690514507498e-06   -4.252306744074591e-06
-2.3508457373623173e-05   3.492690514507498e-06   -4.252306744074591e-06
-9.458671028308855e-06   1.9711027914674886e-06   -2.6755664685774422e-05
-9.458671028308855e-06   1.9711027914674886e-06   -2.6755664685774422e-05
-9.458671028308855e-06   1.9711027914674886e-06   -2.6755664685774422e-05
-9.458671028308855e-06   1.9711027914674886e-06   -2.6755664685774422e-05
3.3119515204467994e-06   0.0   -5.01202156640296e-05
3.3119515204467994e-06   0.0   -5.01202156640296e-05
3.3119515204467994e-06   0.0   -5.01202156640296e-05
3.3119515204467994e-06   0.0   -5.01202156640296e-05
3.4625514903545326e-05   -4.061225247405635e-06   -3.676785073085368e-07
3.4625514903545326e-05   -4.061225247405635e-06   -3.676785073085368e-07
3.4625514903545326e-05   -4.061225247405635e-06   -3.676785073085368e-07
3.4625514903545326e-05   -4.061225247405635e-06   -3.676785073085368e-07
3.468799026798565e-05   0.0   -5.283620722424422e-05
3.468799026798565e-05   0.0   -5.283620722424422e-05
3.468799026798565e-05   0.0   -5.283620722424422e-05
3.468799026798565e-05   0.0   -5.283620722424422e-05
3.936034150391889e-06   -3.061304516304293e-06   2.538356815279414e-07
3.936034150391889e-06   -3.061304516304293e-06   2.538356815279414e-07
3.936034150391889e-06   -3.061304516304293e-06   2.538356815279414e-07
3.936034150391889e-06   -3.061304516304293e-06   2.538356815279414e-07
1.8999970894216225e-05   -2.2633263001788545e-06   -2.5331512487854514e-05
1.8999970894216225e-05   -2.2633263001788545e-06   -2.5331512487854514e-05
1.8999970894216225e-05   -2.2633263001788545e-06   -2.5331512487854514e-05
1.8999970894216225e-05   -2.2633263001788545e-06   -2.5331512487854514e-05
3.9360341503918956e-06   0.0   -5.099942451446164e-05
3.9360341503918956e-06   0.0   -5.099942451446164e-05
3.9360341503918956e-06   0.0   -5.099942451446164e-05
3.9360341503918956e-06   0.0   -5.099942451446164e-05
3.468799026798559e-05   -3.061304516304293e-06   -1.5829470282546372e-06
3.468799026798559e-05   -3.061304516304293e-06   -1.5829470282546372e-06
3.468799026798559e-05   -3.061304516304293e-06   -1.5829470282546372e-06
3.468799026798559e-05   -3.061304516304293e-06   -1.5829470282546372e-06
3.4540206869979546e-05   0.0   -5.2081732620492455e-05
3.4540206869979546e-05   0.0   -5.2081732620492455e-05
3.4540206869979546e-05   0.0   -5.2081732620492455e-05
3.4540206869979546e-05   0.0   -5.2081732620492455e-05
4.42875066090985e-06   -1.925596951703583e-06   -7.406141010208205e-07
4.42875066090985e-06   -1.925596951703583e-06   -7.406141010208205e-07
4.42875066090985e-06   -1.925596951703583e-06   -7.406141010208205e-07
4.42875066090985e-06   -1.925596951703583e-06   -7.406141010208205e-07
1.923812051018572e-05   -9.019234216923393e-07   -2.6037101301153987e-05
1.923812051018572e-05   -9.019234216923393e-07   -2.6037101301153987e-05
1.923812051018572e-05   -9.019234216923393e-07   -2.6037101301153987e-05
1.923812051018572e-05   -9.019234216923393e-07   -2.6037101301153987e-05
4.42875066090985e-06   0.0   -5.0926374449470305e-05
4.42875066090985e-06   0.0   -5.0926374449470305e-05
4.42875066090985e-06   0.0   -5.0926374449470305e-05
4.42875066090985e-06   0.0   -5.0926374449470305e-05
3.4540206869979485e-05   -1.9255969517035696e-06   -1.895972272042961e-06
3.4540206869979485e-05   -1.9255969517035696e-06   -1.895972272042961e-06
3.4540206869979485e-05   -1.9255969517035696e-06   -1.895972272042961e-06
3.4540206869979485e-05   -1.9255969517035696e-06   -1.895972272042961e-06
3.5209896445077696e-05   0.0   -5.006269898400149e-05
3.5209896445077696e-05   0.0   -5.006269898400149e-05
3.5209896445077696e-05   0.0   -5.006269898400149e-05
3.5209896445077696e-05   0.0   -5.006269898400149e-05
5.091323994775941e-06   -3.9950711327690186e-07   3.746260344675723e-07
5.091323994775941e-06   -3.9950711327690186e-07   3.746260344675723e-07
5.091323994775941e-06   -3.9950711327690186e-07   3.746260344675723e-07
5.091323994775941e-06   -3.9950711327690186e-07   3.746260344675723e-07
1.9819323552993772e-05   7.19729554557348e-07   -2.4843581896596005e-05
1.9819323552993772e-05   7.19729554557348e-07   -2.4843581896596005e-05
1.9819323552993772e-05   7.19729554557348e-07   -2.4843581896596005e-05
1.9819323552993772e-05   7.19729554557348e-07   -2.4843581896596005e-05
3.462551490354544e-05   0.0   -5.255695081247298e-05
3.462551490354544e-05   0.0   -5.255695081247298e-05
3.462551490354544e-05   0.0   -5.255695081247298e-05
3.462551490354544e-05   0.0   -5.255695081247298e-05
7.817683139686427e-05   -1.0295796335177672e-05   1.3851098875285374e-05
7.817683139686427e-05   -1.0295796335177672e-05   1.3851098875285374e-05
7.817683139686427e-05   -1.0295796335177672e-05   1.3851098875285374e-05
7.817683139686427e-05   -1.0295796335177672e-05   1.3851098875285374e-05
7.342183676005605e-05   0.0   -5.8091970913347926e-05
7.342183676005605e-05   0.0   -5.8091970913347926e-05
7.342183676005605e-05   0.0   -5.8091970913347926e-05
7.342183676005605e-05   0.0   -5.8091970913347926e-05
3.468799026798559e-05   -8.75960614850616e-06   1.1720203595873087e-05
3.468799026798559e-05   -8.75960614850616e-06   1.1720203595873087e-05
3.468799026798559e-05   -8.75960614850616e-06   1.1720203595873087e-05
3.468799026798559e-05   -8.75960614850616e-06   1.1720203595873087e-05
5.402367583180074e-05   -4.6125167507291305e-06   -2.2994192649151593e-05
5.402367583180074e-05   -4.6125167507291305e-06   -2.2994192649151593e-05
5.402367583180074e-05   -4.6125167507291305e-06   -2.2994192649151593e-05
5.402367583180074e-05   -4.6125167507291305e-06   -2.2994192649151593e-05
3.468799026798562e-05   0.0   -5.283620722424417e-05
3.468799026798562e-05   0.0   -5.283620722424417e-05
3.468799026798562e-05   0.0   -5.283620722424417e-05
3.468799026798562e-05   0.0   -5.283620722424417e-05
7.342183676005605e-05   -8.759606148506173e-06   6.464439906769375e-06
7.342183676005605e-05   -8.759606148506173e-06   6.464439906769375e-06
7.342183676005605e-05   -8.759606148506173e-06   6.464439906769375e-06
7.342183676005605e-05   -8.759606148506173e-06   6.464439906769375e-06
7.122947103041052e-05   0.0   -5.688421559955981e-05
7.122947103041052e-05   0.0   -5.688421559955981e-05
7.122947103041052e-05   0.0   -5.688421559955981e-05
7.122947103041052e-05   0.0   -5.688421559955981e-05
3.4540206869979485e-05   -8.004138298445585e-06   9.067040980225825e-06
3.4540206869979485e-05   -8.004138298445585e-06   9.067040980225825e-06
3.4540206869979485e-05   -8.004138298445585e-06   9.067040980225825e-06
3.4540206869979485e-05   -8.004138298445585e-06   9.067040980225825e-06
5.295873064919806e-05   -3.373340312762992e-06   -2.4408977443214577e-05
5.295873064919806e-05   -3.373340312762992e-06   -2.4408977443214577e-05
5.295873064919806e-05   -3.373340312762992e-06   -2.4408977443214577e-05
5.295873064919806e-05   -3.373340312762992e-06   -2.4408977443214577e-05
3.4540206869979546e-05   0.0   -5.2081732620492455e-05
3.4540206869979546e-05   0.0   -5.2081732620492455e-05
3.4540206869979546e-05   0.0   -5.2081732620492455e-05
3.4540206869979546e-05   0.0   -5.2081732620492455e-05
7.12294710304104e-05   -8.004138298445585e-06   4.264558001158475e-06
7.12294710304104e-05   -8.004138298445585e-06   4.264558001158475e-06
7.12294710304104e-05   -8.004138298445585e-06   4.264558001158475e-06
7.12294710304104e-05   -8.004138298445585e-06   4.264558001158475e-06
6.79651097890158e-05   0.0   -5.379496724956168e-05
6.79651097890158e-05   0.0   -5.379496724956168e-05
6.79651097890158e-05   0.0   -5.379496724956168e-05
6.79651097890158e-05   0.0   -5.379496724956168e-05
3.520989644507761e-05   -6.220447109266973e-06   4.529323255895376e-06
3.520989644507761e-05   -6.220447109266973e-06   4.529323255895376e-06
3.520989644507761e-05   -6.220447109266973e-06   4.529323255895376e-06
3.520989644507761e-05   -6.220447109266973e-06   4.529323255895376e-06
5.125265832949758e-05   -1.427695524224347e-06   -2.508426416916346e-05
5.125265832949758e-05   -1.427695524224347e-06   -2.508426416916346e-05
5.125265832949758e-05   -1.427695524224347e-06   -2.508426416916346e-05
5.125265832949758e-05   -1.427695524224347e-06   -2.508426416916346e-05
-7.643886827158536e-05   9.759060494663962e-06   -5.0165597483220104e-05
-7.643886827158536e-05   9.759060494663962e-06   -5.0165597483220104e-05
-7.643886827158536e-05   9.759060494663962e-06   -5.0165597483220104e-05
-7.643886827158536e-05   9.759060494663962e-06   -5.0165597483220104e-05