<?xml version="1.0"?> 
<VTKFile type="UnstructuredGrid"> 
   <UnstructuredGrid> 
      <Piece NumberOfPoints="6000"  NumberOfCells="1500">  
          <Points>  
             <DataArray type="Float64" NumberOfComponents="3" format="ascii">   
-500.0   0.0   0.0
-450.0   0.0   0.0
-500.0   30.0   0.0
-500.0   0.0   16.666666666666668
-450.0   0.0   0.0
-450.0   30.0   0.0
-500.0   30.0   0.0
-450.0   30.0   16.666666666666668
-500.0   0.0   16.666666666666668
-500.0   30.0   16.666666666666668
-450.0   30.0   16.666666666666668
-500.0   30.0   0.0
-500.0   0.0   16.666666666666668
-450.0   30.0   16.666666666666668
-450.0   0.0   16.666666666666668
-450.0   0.0   0.0
-500.0   0.0   16.666666666666668
-450.0   30.0   16.666666666666668
-450.0   0.0   0.0
-500.0   30.0   0.0
-500.0   0.0   16.666666666666668
-450.0   0.0   16.666666666666668
-500.0   30.0   16.666666666666668
-500.0   0.0   33.333333333333336
-450.0   0.0   16.666666666666668
-450.0   30.0   16.666666666666668
-500.0   30.0   16.666666666666668
-450.0   30.0   33.333333333333336
-500.0   0.0   33.333333333333336
-500.0   30.0   33.333333333333336
-450.0   30.0   33.333333333333336
-500.0   30.0   16.666666666666668
-500.0   0.0   33.333333333333336
-450.0   30.0   33.333333333333336
-450.0   0.0   33.333333333333336
-450.0   0.0   16.666666666666668
-500.0   0.0   33.333333333333336
-450.0   30.0   33.333333333333336
-450.0   0.0   16.666666666666668
-500.0   30.0   16.666666666666668
-500.0   0.0   33.333333333333336
-450.0   0.0   33.333333333333336
-500.0   30.0   33.333333333333336
-500.0   0.0   50.0
-450.0   0.0   33.333333333333336
-450.0   30.0   33.333333333333336
-500.0   30.0   33.333333333333336
-450.0   30.0   50.0
-500.0   0.0   50.0
-500.0   30.0   50.0
-450.0   30.0   50.0
-500.0   30.0   33.333333333333336
-500.0   0.0   50.0
-450.0   30.0   50.0
-450.0   0.0   50.0
-450.0   0.0   33.333333333333336
-500.0   0.0   50.0
-450.0   30.0   50.0
-450.0   0.0   33.333333333333336
-500.0   30.0   33.333333333333336
-500.0   30.0   0.0
-450.0   30.0   0.0
-500.0   60.0   0.0
-500.0   30.0   16.666666666666668
-450.0   30.0   0.0
-450.0   60.0   0.0
-500.0   60.0   0.0
-450.0   60.0   16.666666666666668
-500.0   30.0   16.666666666666668
-500.0   60.0   16.666666666666668
-450.0   60.0   16.666666666666668
-500.0   60.0   0.0
-500.0   30.0   16.666666666666668
-450.0   60.0   16.666666666666668
-450.0   30.0   16.666666666666668
-450.0   30.0   0.0
-500.0   30.0   16.666666666666668
-450.0   60.0   16.666666666666668
-450.0   30.0   0.0
-500.0   60.0   0.0
-500.0   30.0   16.666666666666668
-450.0   30.0   16.666666666666668
-500.0   60.0   16.666666666666668
-500.0   30.0   33.333333333333336
-450.0   30.0   16.666666666666668
-450.0   60.0   16.666666666666668
-500.0   60.0   16.666666666666668
-450.0   60.0   33.333333333333336
-500.0   30.0   33.333333333333336
-500.0   60.0   33.333333333333336
-450.0   60.0   33.333333333333336
-500.0   60.0   16.666666666666668
-500.0   30.0   33.333333333333336
-450.0   60.0   33.333333333333336
-450.0   30.0   33.333333333333336
-450.0   30.0   16.666666666666668
-500.0   30.0   33.333333333333336
-450.0   60.0   33.333333333333336
-450.0   30.0   16.666666666666668
-500.0   60.0   16.666666666666668
-500.0   30.0   33.333333333333336
-450.0   30.0   33.333333333333336
-500.0   60.0   33.333333333333336
-500.0   30.0   50.0
-450.0   30.0   33.333333333333336
-450.0   60.0   33.333333333333336
-500.0   60.0   33.333333333333336
-450.0   60.0   50.0
-500.0   30.0   50.0
-500.0   60.0   50.0
-450.0   60.0   50.0
-500.0   60.0   33.333333333333336
-500.0   30.0   50.0
-450.0   60.0   50.0
-450.0   30.0   50.0
-450.0   30.0   33.333333333333336
-500.0   30.0   50.0
-450.0   60.0   50.0
-450.0   30.0   33.333333333333336
-500.0   60.0   33.333333333333336
-500.0   60.0   0.0
-450.0   60.0   0.0
-500.0   90.0   0.0
-500.0   60.0   16.666666666666668
-450.0   60.0   0.0
-450.0   90.0   0.0
-500.0   90.0   0.0
-450.0   90.0   16.666666666666668
-500.0   60.0   16.666666666666668
-500.0   90.0   16.666666666666668
-450.0   90.0   16.666666666666668
-500.0   90.0   0.0
-500.0   60.0   16.666666666666668
-450.0   90.0   16.666666666666668
-450.0   60.0   16.666666666666668
-450.0   60.0   0.0
-500.0   60.0   16.666666666666668
-450.0   90.0   16.666666666666668
-450.0   60.0   0.0
-500.0   90.0   0.0
-500.0   60.0   16.666666666666668
-450.0   60.0   16.666666666666668
-500.0   90.0   16.666666666666668
-500.0   60.0   33.333333333333336
-450.0   60.0   16.666666666666668
-450.0   90.0   16.666666666666668
-500.0   90.0   16.666666666666668
-450.0   90.0   33.333333333333336
-500.0   60.0   33.333333333333336
-500.0   90.0   33.333333333333336
-450.0   90.0   33.333333333333336
-500.0   90.0   16.666666666666668
-500.0   60.0   33.333333333333336
-450.0   90.0   33.333333333333336
-450.0   60.0   33.333333333333336
-450.0   60.0   16.666666666666668
-500.0   60.0   33.333333333333336
-450.0   90.0   33.333333333333336
-450.0   60.0   16.666666666666668
-500.0   90.0   16.666666666666668
-500.0   60.0   33.333333333333336
-450.0   60.0   33.333333333333336
-500.0   90.0   33.333333333333336
-500.0   60.0   50.0
-450.0   60.0   33.333333333333336
-450.0   90.0   33.333333333333336
-500.0   90.0   33.333333333333336
-450.0   90.0   50.0
-500.0   60.0   50.0
-500.0   90.0   50.0
-450.0   90.0   50.0
-500.0   90.0   33.333333333333336
-500.0   60.0   50.0
-450.0   90.0   50.0
-450.0   60.0   50.0
-450.0   60.0   33.333333333333336
-500.0   60.0   50.0
-450.0   90.0   50.0
-450.0   60.0   33.333333333333336
-500.0   90.0   33.333333333333336
-500.0   90.0   0.0
-450.0   90.0   0.0
-500.0   120.0   0.0
-500.0   90.0   16.666666666666668
-450.0   90.0   0.0
-450.0   120.0   0.0
-500.0   120.0   0.0
-450.0   120.0   16.666666666666668
-500.0   90.0   16.666666666666668
-500.0   120.0   16.666666666666668
-450.0   120.0   16.666666666666668
-500.0   120.0   0.0
-500.0   90.0   16.666666666666668
-450.0   120.0   16.666666666666668
-450.0   90.0   16.666666666666668
-450.0   90.0   0.0
-500.0   90.0   16.666666666666668
-450.0   120.0   16.666666666666668
-450.0   90.0   0.0
-500.0   120.0   0.0
-500.0   90.0   16.666666666666668
-450.0   90.0   16.666666666666668
-500.0   120.0   16.666666666666668
-500.0   90.0   33.333333333333336
-450.0   90.0   16.666666666666668
-450.0   120.0   16.666666666666668
-500.0   120.0   16.666666666666668
-450.0   120.0   33.333333333333336
-500.0   90.0   33.333333333333336
-500.0   120.0   33.333333333333336
-450.0   120.0   33.333333333333336
-500.0   120.0   16.666666666666668
-500.0   90.0   33.333333333333336
-450.0   120.0   33.333333333333336
-450.0   90.0   33.333333333333336
-450.0   90.0   16.666666666666668
-500.0   90.0   33.333333333333336
-450.0   120.0   33.333333333333336
-450.0   90.0   16.666666666666668
-500.0   120.0   16.666666666666668
-500.0   90.0   33.333333333333336
-450.0   90.0   33.333333333333336
-500.0   120.0   33.333333333333336
-500.0   90.0   50.0
-450.0   90.0   33.333333333333336
-450.0   120.0   33.333333333333336
-500.0   120.0   33.333333333333336
-450.0   120.0   50.0
-500.0   90.0   50.0
-500.0   120.0   50.0
-450.0   120.0   50.0
-500.0   120.0   33.333333333333336
-500.0   90.0   50.0
-450.0   120.0   50.0
-450.0   90.0   50.0
-450.0   90.0   33.333333333333336
-500.0   90.0   50.0
-450.0   120.0   50.0
-450.0   90.0   33.333333333333336
-500.0   120.0   33.333333333333336
-500.0   120.0   0.0
-450.0   120.0   0.0
-500.0   150.0   0.0
-500.0   120.0   16.666666666666668
-450.0   120.0   0.0
-450.0   150.0   0.0
-500.0   150.0   0.0
-450.0   150.0   16.666666666666668
-500.0   120.0   16.666666666666668
-500.0   150.0   16.666666666666668
-450.0   150.0   16.666666666666668
-500.0   150.0   0.0
-500.0   120.0   16.666666666666668
-450.0   150.0   16.666666666666668
-450.0   120.0   16.666666666666668
-450.0   120.0   0.0
-500.0   120.0   16.666666666666668
-450.0   150.0   16.666666666666668
-450.0   120.0   0.0
-500.0   150.0   0.0
-500.0   120.0   16.666666666666668
-450.0   120.0   16.666666666666668
-500.0   150.0   16.666666666666668
-500.0   120.0   33.333333333333336
-450.0   120.0   16.666666666666668
-450.0   150.0   16.666666666666668
-500.0   150.0   16.666666666666668
-450.0   150.0   33.333333333333336
-500.0   120.0   33.333333333333336
-500.0   150.0   33.333333333333336
-450.0   150.0   33.333333333333336
-500.0   150.0   16.666666666666668
-500.0   120.0   33.333333333333336
-450.0   150.0   33.333333333333336
-450.0   120.0   33.333333333333336
-450.0   120.0   16.666666666666668
-500.0   120.0   33.333333333333336
-450.0   150.0   33.333333333333336
-450.0   120.0   16.666666666666668
-500.0   150.0   16.666666666666668
-500.0   120.0   33.333333333333336
-450.0   120.0   33.333333333333336
-500.0   150.0   33.333333333333336
-500.0   120.0   50.0
-450.0   120.0   33.333333333333336
-450.0   150.0   33.333333333333336
-500.0   150.0   33.333333333333336
-450.0   150.0   50.0
-500.0   120.0   50.0
-500.0   150.0   50.0
-450.0   150.0   50.0
-500.0   150.0   33.333333333333336
-500.0   120.0   50.0
-450.0   150.0   50.0
-450.0   120.0   50.0
-450.0   120.0   33.333333333333336
-500.0   120.0   50.0
-450.0   150.0   50.0
-450.0   120.0   33.333333333333336
-500.0   150.0   33.333333333333336
-450.0   0.0   0.0
-400.0   0.0   0.0
-450.0   30.0   0.0
-450.0   0.0   16.666666666666668
-400.0   0.0   0.0
-400.0   30.0   0.0
-450.0   30.0   0.0
-400.0   30.0   16.666666666666668
-450.0   0.0   16.666666666666668
-450.0   30.0   16.666666666666668
-400.0   30.0   16.666666666666668
-450.0   30.0   0.0
-450.0   0.0   16.666666666666668
-400.0   30.0   16.666666666666668
-400.0   0.0   16.666666666666668
-400.0   0.0   0.0
-450.0   0.0   16.666666666666668
-400.0   30.0   16.666666666666668
-400.0   0.0   0.0
-450.0   30.0   0.0
-450.0   0.0   16.666666666666668
-400.0   0.0   16.666666666666668
-450.0   30.0   16.666666666666668
[...]
          <PointData>  
             <DataArray type="Float64" NumberOfComponents="3" Name="Strains" format="ascii">   
-7.559751794597891e-05   0.0   -4.9667250200055014e-05
-7.559751794597891e-05   0.0   -4.9667250200055014e-05
-7.559751794597891e-05   0.0   -4.9667250200055014e-05
-7.559751794597891e-05   0.0   -4.9667250200055014e-05
-4.8098975547875906e-05   8.36779369523521e-06   1.184330013924358e-06
-4.8098975547875906e-05   8.36779369523521e-06   1.184330013924358e-06
-4.8098975547875906e-05   8.36779369523521e-06   1.184330013924358e-06
-4.8098975547875906e-05   8.36779369523521e-06   1.184330013924358e-06
-4.714428092673471e-05   0.0   -4.688299571181364e-05
-4.714428092673471e-05   0.0   -4.688299571181364e-05
-4.714428092673471e-05   0.0   -4.688299571181364e-05
-4.714428092673471e-05   0.0   -4.688299571181364e-05
-7.91121108639224e-05   1.0045100136218154e-05   3.696607684351488e-07
-7.91121108639224e-05   1.0045100136218154e-05   3.696607684351488e-07
-7.91121108639224e-05   1.0045100136218154e-05   3.696607684351488e-07
-7.91121108639224e-05   1.0045100136218154e-05   3.696607684351488e-07
-6.137089943635671e-05   2.320212073534479e-06   -2.45640921065641e-05
-6.137089943635671e-05   2.320212073534479e-06   -2.45640921065641e-05
-6.137089943635671e-05   2.320212073534479e-06   -2.45640921065641e-05
-6.137089943635671e-05   2.320212073534479e-06   -2.45640921065641e-05
-7.911211086392253e-05   0.0   -5.291005579354454e-05
-7.911211086392253e-05   0.0   -5.291005579354454e-05
-7.911211086392253e-05   0.0   -5.291005579354454e-05
-7.911211086392253e-05   0.0   -5.291005579354454e-05
-4.714428092673471e-05   1.0045100136218168e-05   6.396720850166055e-06
-4.714428092673471e-05   1.0045100136218168e-05   6.396720850166055e-06
-4.714428092673471e-05   1.0045100136218168e-05   6.396720850166055e-06
-4.714428092673471e-05   1.0045100136218168e-05   6.396720850166055e-06
-4.727350281216378e-05   0.0   -4.8029521847662796e-05
-4.727350281216378e-05   0.0   -4.8029521847662796e-05
-4.727350281216378e-05   0.0   -4.8029521847662796e-05
-4.727350281216378e-05   0.0   -4.8029521847662796e-05
-8.15786611359852e-05   1.0762715138609995e-05   2.6881129422071397e-06
-8.15786611359852e-05   1.0762715138609995e-05   2.6881129422071397e-06
-8.15786611359852e-05   1.0762715138609995e-05   2.6881129422071397e-06
-8.15786611359852e-05   1.0762715138609995e-05   2.6881129422071397e-06
-6.319280683804305e-05   4.067111621568115e-06   -2.3937615444137986e-05
-6.319280683804305e-05   4.067111621568115e-06   -2.3937615444137986e-05
-6.319280683804305e-05   4.067111621568115e-06   -2.3937615444137986e-05
-6.319280683804305e-05   4.067111621568115e-06   -2.3937615444137986e-05
-8.157866113598534e-05   0.0   -5.4487150930828804e-05
-8.157866113598534e-05   0.0   -5.4487150930828804e-05
-8.157866113598534e-05   0.0   -5.4487150930828804e-05
-8.157866113598534e-05   0.0   -5.4487150930828804e-05
-4.72735028121637e-05   1.0762715138609995e-05   9.145742025373134e-06
-4.72735028121637e-05   1.0762715138609995e-05   9.145742025373134e-06
-4.72735028121637e-05   1.0762715138609995e-05   9.145742025373134e-06
-4.72735028121637e-05   1.0762715138609995e-05   9.145742025373134e-06
-4.72444463102474e-05   0.0   -4.832472204489536e-05
-4.72444463102474e-05   0.0   -4.832472204489536e-05
-4.72444463102474e-05   0.0   -4.832472204489536e-05
-4.72444463102474e-05   0.0   -4.832472204489536e-05
-8.689599485992491e-05   1.2263762306799974e-05   1.040293482048739e-05
-8.689599485992491e-05   1.2263762306799974e-05   1.040293482048739e-05
-8.689599485992491e-05   1.2263762306799974e-05   1.040293482048739e-05
-8.689599485992491e-05   1.2263762306799974e-05   1.040293482048739e-05
-6.441155372311626e-05   5.135357404944532e-06   -2.2794090799747067e-05
-6.441155372311626e-05   5.135357404944532e-06   -2.2794090799747067e-05
-6.441155372311626e-05   5.135357404944532e-06   -2.2794090799747067e-05
-6.441155372311626e-05   5.135357404944532e-06   -2.2794090799747067e-05
-4.809897554787599e-05   0.0   -4.464657398291389e-05
-4.809897554787599e-05   0.0   -4.464657398291389e-05
-4.809897554787599e-05   0.0   -4.464657398291389e-05
-4.809897554787599e-05   0.0   -4.464657398291389e-05
-2.1908850886844048e-05   3.0676345000517184e-06   8.442144855036858e-07
-2.1908850886844048e-05   3.0676345000517184e-06   8.442144855036858e-07
-2.1908850886844048e-05   3.0676345000517184e-06   8.442144855036858e-07
-2.1908850886844048e-05   3.0676345000517184e-06   8.442144855036858e-07
-2.1067984187190834e-05   0.0   -4.426120294235666e-05
-2.1067984187190834e-05   0.0   -4.426120294235666e-05
-2.1067984187190834e-05   0.0   -4.426120294235666e-05
-2.1067984187190834e-05   0.0   -4.426120294235666e-05
-4.714428092673471e-05   4.3696546157615115e-06   -3.422501145907252e-06
-4.714428092673471e-05   4.3696546157615115e-06   -3.422501145907252e-06
-4.714428092673471e-05   4.3696546157615115e-06   -3.422501145907252e-06
-4.714428092673471e-05   4.3696546157615115e-06   -3.422501145907252e-06
-3.458347986753337e-05   3.211425337976232e-07   -2.1928062328730997e-05
-3.458347986753337e-05   3.211425337976232e-07   -2.1928062328730997e-05
-3.458347986753337e-05   3.211425337976232e-07   -2.1928062328730997e-05
-3.458347986753337e-05   3.211425337976232e-07   -2.1928062328730997e-05
-4.714428092673467e-05   0.0   -4.68829957118136e-05
-4.714428092673467e-05   0.0   -4.68829957118136e-05
-4.714428092673467e-05   0.0   -4.68829957118136e-05
-4.714428092673467e-05   0.0   -4.68829957118136e-05
-2.1067984187190834e-05   4.369654615761498e-06   -8.007083764503451e-07
-2.1067984187190834e-05   4.369654615761498e-06   -8.007083764503451e-07
-2.1067984187190834e-05   4.369654615761498e-06   -8.007083764503451e-07
-2.1067984187190834e-05   4.369654615761498e-06   -8.007083764503451e-07
-2.0594201467592486e-05   0.0   -4.481602839127134e-05
-2.0594201467592486e-05   0.0   -4.481602839127134e-05
-2.0594201467592486e-05   0.0   -4.481602839127134e-05
-2.0594201467592486e-05   0.0   -4.481602839127134e-05
-4.727350281216378e-05   5.3558224273189746e-06   -3.5640196067107e-06
-4.727350281216378e-05   5.3558224273189746e-06   -3.5640196067107e-06
-4.727350281216378e-05   5.3558224273189746e-06   -3.5640196067107e-06
-4.727350281216378e-05   5.3558224273189746e-06   -3.5640196067107e-06
-3.386924119716361e-05   1.7224727671185186e-06   -2.3724445835590673e-05
-3.386924119716361e-05   1.7224727671185186e-06   -2.3724445835590673e-05
-3.386924119716361e-05   1.7224727671185186e-06   -2.3724445835590673e-05
-3.386924119716361e-05   1.7224727671185186e-06   -2.3724445835590673e-05
-4.727350281216378e-05   0.0   -4.8029521847662796e-05
-4.727350281216378e-05   0.0   -4.8029521847662796e-05
-4.727350281216378e-05   0.0   -4.8029521847662796e-05
-4.727350281216378e-05   0.0   -4.8029521847662796e-05
-2.0594201467592524e-05   5.3558224273189746e-06   -3.50526150319326e-07
-2.0594201467592524e-05   5.3558224273189746e-06   -3.50526150319326e-07
-2.0594201467592524e-05   5.3558224273189746e-06   -3.50526150319326e-07
-2.0594201467592524e-05   5.3558224273189746e-06   -3.50526150319326e-07
-2.016216846586005e-05   0.0   -4.458491603551595e-05
-2.016216846586005e-05   0.0   -4.458491603551595e-05
-2.016216846586005e-05   0.0   -4.458491603551595e-05
-2.016216846586005e-05   0.0   -4.458491603551595e-05
-4.724444631024728e-05   6.233010015632264e-06   -3.18759230424975e-06
-4.724444631024728e-05   6.233010015632264e-06   -3.18759230424975e-06
-4.724444631024728e-05   6.233010015632264e-06   -3.18759230424975e-06
-4.724444631024728e-05   6.233010015632264e-06   -3.18759230424975e-06
-3.37178356390119e-05   2.870504843455673e-06   -2.3714440319669595e-05
-3.37178356390119e-05   2.870504843455673e-06   -2.3714440319669595e-05
-3.37178356390119e-05   2.870504843455673e-06   -2.3714440319669595e-05
-3.37178356390119e-05   2.870504843455673e-06   -2.3714440319669595e-05
-2.1908850886844085e-05   0.0   -4.280599328288286e-05
-2.1908850886844085e-05   0.0   -4.280599328288286e-05
-2.1908850886844085e-05   0.0   -4.280599328288286e-05
-2.1908850886844085e-05   0.0   -4.280599328288286e-05
2.8327063272831824e-06   -3.9402000814901057e-07   -1.8064765975601083e-06
2.8327063272831824e-06   -3.9402000814901057e-07   -1.8064765975601083e-06
2.8327063272831824e-06   -3.9402000814901057e-07   -1.8064765975601083e-06
2.8327063272831824e-06   -3.9402000814901057e-07   -1.8064765975601083e-06
3.3711607618810806e-06   0.0   -4.3796130219144684e-05
3.3711607618810806e-06   0.0   -4.3796130219144684e-05
3.3711607618810806e-06   0.0   -4.3796130219144684e-05
3.3711607618810806e-06   0.0   -4.3796130219144684e-05
-2.1067984187190834e-05   7.751212053531731e-07   -3.529294693903462e-06
-2.1067984187190834e-05   7.751212053531731e-07   -3.529294693903462e-06
-2.1067984187190834e-05   7.751212053531731e-07   -3.529294693903462e-06
-2.1067984187190834e-05   7.751212053531731e-07   -3.529294693903462e-06
-9.26884506248148e-06   -8.251141135516495e-07   -2.2234385377076145e-05
-9.26884506248148e-06   -8.251141135516495e-07   -2.2234385377076145e-05
-9.26884506248148e-06   -8.251141135516495e-07   -2.2234385377076145e-05
-9.26884506248148e-06   -8.251141135516495e-07   -2.2234385377076145e-05
-2.106798418719087e-05   0.0   -4.4261202942356735e-05
-2.106798418719087e-05   0.0   -4.4261202942356735e-05
-2.106798418719087e-05   0.0   -4.4261202942356735e-05
-2.106798418719087e-05   0.0   -4.4261202942356735e-05
3.3711607618810865e-06   7.751212053531731e-07   -3.0642219706915593e-06
3.3711607618810865e-06   7.751212053531731e-07   -3.0642219706915593e-06
3.3711607618810865e-06   7.751212053531731e-07   -3.0642219706915593e-06
3.3711607618810865e-06   7.751212053531731e-07   -3.0642219706915593e-06
3.7966365835918707e-06   0.0   -4.373318655434825e-05
3.7966365835918707e-06   0.0   -4.373318655434825e-05
3.7966365835918707e-06   0.0   -4.373318655434825e-05
3.7966365835918707e-06   0.0   -4.373318655434825e-05
-2.0594201467592453e-05   1.8047363948718099e-06   -4.164631639297408e-06
-2.0594201467592453e-05   1.8047363948718099e-06   -4.164631639297408e-06
-2.0594201467592453e-05   1.8047363948718099e-06   -4.164631639297408e-06
-2.0594201467592453e-05   1.8047363948718099e-06   -4.164631639297408e-06
-8.635673801799483e-06   4.400136566736813e-07   -2.3276677439366853e-05
-8.635673801799483e-06   4.400136566736813e-07   -2.3276677439366853e-05
-8.635673801799483e-06   4.400136566736813e-07   -2.3276677439366853e-05
-8.635673801799483e-06   4.400136566736813e-07   -2.3276677439366853e-05
-2.0594201467592524e-05   0.0   -4.4816028391271416e-05
-2.0594201467592524e-05   0.0   -4.4816028391271416e-05
-2.0594201467592524e-05   0.0   -4.4816028391271416e-05
-2.0594201467592524e-05   0.0   -4.4816028391271416e-05
3.796636583591877e-06   1.8047363948718099e-06   -3.0817898023743284e-06
3.796636583591877e-06   1.8047363948718099e-06   -3.0817898023743284e-06
3.796636583591877e-06   1.8047363948718099e-06   -3.0817898023743284e-06
3.796636583591877e-06   1.8047363948718099e-06   -3.0817898023743284e-06
4.367877033096276e-06   0.0   -4.278667330203894e-05
4.367877033096276e-06   0.0   -4.278667330203894e-05
4.367877033096276e-06   0.0   -4.278667330203894e-05
4.367877033096276e-06   0.0   -4.278667330203894e-05
-2.0162168465860034e-05   2.9970712224616292e-06   -3.7015068705887317e-06
-2.0162168465860034e-05   2.9970712224616292e-06   -3.7015068705887317e-06
-2.0162168465860034e-05   2.9970712224616292e-06   -3.7015068705887317e-06
-2.0162168465860034e-05   2.9970712224616292e-06   -3.7015068705887317e-06
-8.113162217248106e-06   1.6911292410270003e-06   -2.299961876274782e-05
-8.113162217248106e-06   1.6911292410270003e-06   -2.299961876274782e-05
-8.113162217248106e-06   1.6911292410270003e-06   -2.299961876274782e-05
-8.113162217248106e-06   1.6911292410270003e-06   -2.299961876274782e-05
2.8327063272831874e-06   0.0   -4.304240528777226e-05
2.8327063272831874e-06   0.0   -4.304240528777226e-05
2.8327063272831874e-06   0.0   -4.304240528777226e-05
2.8327063272831874e-06   0.0   -4.304240528777226e-05
2.9692468548139587e-05   -3.482642950291157e-06   -3.657206898527603e-07
2.9692468548139587e-05   -3.482642950291157e-06   -3.657206898527603e-07
2.9692468548139587e-05   -3.482642950291157e-06   -3.657206898527603e-07
2.9692468548139587e-05   -3.482642950291157e-06   -3.657206898527603e-07
2.974950275252028e-05   0.0   -4.537076997999567e-05
2.974950275252028e-05   0.0   -4.537076997999567e-05
2.974950275252028e-05   0.0   -4.537076997999567e-05
2.974950275252028e-05   0.0   -4.537076997999567e-05
3.3711607618810865e-06   -2.624399601418057e-06   1.6777309858713522e-07
3.3711607618810865e-06   -2.624399601418057e-06   1.6777309858713522e-07
3.3711607618810865e-06   -2.624399601418057e-06   1.6777309858713522e-07
3.3711607618810865e-06   -2.624399601418057e-06   1.6777309858713522e-07
1.6291104539901733e-05   -1.9403039101861794e-06   -2.177592394618638e-05
1.6291104539901733e-05   -1.9403039101861794e-06   -2.177592394618638e-05
1.6291104539901733e-05   -1.9403039101861794e-06   -2.177592394618638e-05
1.6291104539901733e-05   -1.9403039101861794e-06   -2.177592394618638e-05
3.3711607618810924e-06   0.0   -4.379613021914483e-05
3.3711607618810924e-06   0.0   -4.379613021914483e-05
3.3711607618810924e-06   0.0   -4.379613021914483e-05
3.3711607618810924e-06   0.0   -4.379613021914483e-05
2.9749502752520224e-05   -2.624399601418057e-06   -1.4068666622636962e-06
2.9749502752520224e-05   -2.624399601418057e-06   -1.4068666622636962e-06
2.9749502752520224e-05   -2.624399601418057e-06   -1.4068666622636962e-06
2.9749502752520224e-05   -2.624399601418057e-06   -1.4068666622636962e-06
2.9625740450810307e-05   0.0   -4.472292286245701e-05
2.9625740450810307e-05   0.0   -4.472292286245701e-05
2.9625740450810307e-05   0.0   -4.472292286245701e-05
2.9625740450810307e-05   0.0   -4.472292286245701e-05
3.796636583591877e-06   -1.649560513514479e-06   -6.846801089842834e-07
3.796636583591877e-06   -1.649560513514479e-06   -6.846801089842834e-07
3.796636583591877e-06   -1.649560513514479e-06   -6.846801089842834e-07
3.796636583591877e-06   -1.649560513514479e-06   -6.846801089842834e-07
1.64984506063457e-05   -7.723272027601447e-07   -2.2380710133359894e-05
1.64984506063457e-05   -7.723272027601447e-07   -2.2380710133359894e-05
1.64984506063457e-05   -7.723272027601447e-07   -2.2380710133359894e-05
1.64984506063457e-05   -7.723272027601447e-07   -2.2380710133359894e-05
3.796636583591877e-06   0.0   -4.373318655434833e-05
3.796636583591877e-06   0.0   -4.373318655434833e-05
3.796636583591877e-06   0.0   -4.373318655434833e-05
3.796636583591877e-06   0.0   -4.373318655434833e-05
2.9625740450810256e-05   -1.6495605135144654e-06   -1.6744164170929646e-06
2.9625740450810256e-05   -1.6495605135144654e-06   -1.6744164170929646e-06
2.9625740450810256e-05   -1.6495605135144654e-06   -1.6744164170929646e-06
2.9625740450810256e-05   -1.6495605135144654e-06   -1.6744164170929646e-06
3.020300954799602e-05   0.0   -4.2990563441200265e-05
3.020300954799602e-05   0.0   -4.2990563441200265e-05
3.020300954799602e-05   0.0   -4.2990563441200265e-05
3.020300954799602e-05   0.0   -4.2990563441200265e-05
4.367877033096282e-06   -3.39816898602092e-07   2.718808894605347e-07
4.367877033096282e-06   -3.39816898602092e-07   2.718808894605347e-07
4.367877033096282e-06   -3.39816898602092e-07   2.718808894605347e-07
4.367877033096282e-06   -3.39816898602092e-07   2.718808894605347e-07
1.6999823065793947e-05   6.188525942900494e-07   -2.1356564194104166e-05
1.6999823065793947e-05   6.188525942900494e-07   -2.1356564194104166e-05
1.6999823065793947e-05   6.188525942900494e-07   -2.1356564194104166e-05
1.6999823065793947e-05   6.188525942900494e-07   -2.1356564194104166e-05
2.969246854813969e-05   0.0   -4.5131991057946963e-05
2.969246854813969e-05   0.0   -4.5131991057946963e-05
2.969246854813969e-05   0.0   -4.5131991057946963e-05
2.969246854813969e-05   0.0   -4.5131991057946963e-05
6.705738513660049e-05   -8.831333522782618e-06   1.1844069809151668e-05
6.705738513660049e-05   -8.831333522782618e-06   1.1844069809151668e-05
6.705738513660049e-05   -8.831333522782618e-06   1.1844069809151668e-05
6.705738513660049e-05   -8.831333522782618e-06   1.1844069809151668e-05
6.298320852315875e-05   0.0   -4.987786328827468e-05
6.298320852315875e-05   0.0   -4.987786328827468e-05
6.298320852315875e-05   0.0   -4.987786328827468e-05
6.298320852315875e-05   0.0   -4.987786328827468e-05
2.9749502752520224e-05   -7.511822180465003e-06   1.0018739637735097e-05
2.9749502752520224e-05   -7.511822180465003e-06   1.0018739637735097e-05
2.9749502752520224e-05   -7.511822180465003e-06   1.0018739637735097e-05
2.9749502752520224e-05   -7.511822180465003e-06   1.0018739637735097e-05
4.6337838535649215e-05   -3.954893525273109e-06   -1.976264386059492e-05
4.6337838535649215e-05   -3.954893525273109e-06   -1.976264386059492e-05
4.6337838535649215e-05   -3.954893525273109e-06   -1.976264386059492e-05
4.6337838535649215e-05   -3.954893525273109e-06   -1.976264386059492e-05
2.974950275252025e-05   0.0   -4.537076997999563e-05
2.974950275252025e-05   0.0   -4.537076997999563e-05
2.974950275252025e-05   0.0   -4.537076997999563e-05
2.974950275252025e-05   0.0   -4.537076997999563e-05
6.298320852315875e-05   -7.511822180465003e-06   5.5116463294560964e-06
6.298320852315875e-05   -7.511822180465003e-06   5.5116463294560964e-06
6.298320852315875e-05   -7.511822180465003e-06   5.5116463294560964e-06
6.298320852315875e-05   -7.511822180465003e-06   5.5116463294560964e-06
6.110609167844563e-05   0.0   -4.884091523118472e-05
6.110609167844563e-05   0.0   -4.884091523118472e-05
6.110609167844563e-05   0.0   -4.884091523118472e-05
6.110609167844563e-05   0.0   -4.884091523118472e-05
2.9625740450810256e-05   -6.863320614546161e-06   7.744329183601844e-06
2.9625740450810256e-05   -6.863320614546161e-06   7.744329183601844e-06
2.9625740450810256e-05   -6.863320614546161e-06   7.744329183601844e-06
2.9625740450810256e-05   -6.863320614546161e-06   7.744329183601844e-06
4.542779721548293e-05   -2.8917877093242037e-06   -2.097535183398569e-05
4.542779721548293e-05   -2.8917877093242037e-06   -2.097535183398569e-05
4.542779721548293e-05   -2.8917877093242037e-06   -2.097535183398569e-05
4.542779721548293e-05   -2.8917877093242037e-06   -2.097535183398569e-05
2.9625740450810307e-05   0.0   -4.472292286245701e-05
2.9625740450810307e-05   0.0   -4.472292286245701e-05
2.9625740450810307e-05   0.0   -4.472292286245701e-05
2.9625740450810307e-05   0.0   -4.472292286245701e-05
6.110609167844552e-05   -6.863320614546161e-06   3.62633681487415e-06
6.110609167844552e-05   -6.863320614546161e-06   3.62633681487415e-06
6.110609167844552e-05   -6.863320614546161e-06   3.62633681487415e-06
6.110609167844552e-05   -6.863320614546161e-06   3.62633681487415e-06
5.830904119643248e-05   0.0   -4.6189588486468216e-05
5.830904119643248e-05   0.0   -4.6189588486468216e-05
5.830904119643248e-05   0.0   -4.6189588486468216e-05
5.830904119643248e-05   0.0   -4.6189588486468216e-05
3.020300954799594e-05   -5.331708408779913e-06   3.8528226395272e-06
3.020300954799594e-05   -5.331708408779913e-06   3.8528226395272e-06
3.020300954799594e-05   -5.331708408779913e-06   3.8528226395272e-06
3.020300954799594e-05   -5.331708408779913e-06   3.8528226395272e-06
4.396739082362132e-05   -1.2222213533426746e-06   -2.1553505053110748e-05
4.396739082362132e-05   -1.2222213533426746e-06   -2.1553505053110748e-05
4.396739082362132e-05   -1.2222213533426746e-06   -2.1553505053110748e-05
4.396739082362132e-05   -1.2222213533426746e-06   -2.1553505053110748e-05
-6.555275043412921e-05   8.367793695235182e-06   -4.304596421235333e-05
-6.555275043412921e-05   8.367793695235182e-06   -4.304596421235333e-05
-6.555275043412921e-05   8.367793695235182e-06   -4.304596421235333e-05
-6.555275043412921e-05   8.367793695235182e-06   -4.304596421235333e-05