<?xml version="1.0"?> 
<VTKFile type="UnstructuredGrid"> 
   <UnstructuredGrid> 
      <Piece NumberOfPoints="6000"  NumberOfCells="1500">  
          <Points>  
             <DataArray type="Float64" NumberOfComponents="3" format="ascii">   
-500.0   0.0   0.0
-450.0   0.0   0.0
-500.0   30.0   0.0
-500.0   0.0   16.666666666666668
-450.0   0.0   0.0
-450.0   30.0   0.0
-500.0   30.0   0.0
-450.0   30.0   16.666666666666668
-500.0   0.0   16.666666666666668
-500.0   30.0   16.666666666666668
-450.0   30.0   16.666666666666668
-500.0   30.0   0.0
-500.0   0.0   16.666666666666668
-450.0   30.0   16.666666666666668
-450.0   0.0   16.666666666666668
-450.0   0.0   0.0
-500.0   0.0   16.666666666666668
-450.0   30.0   16.666666666666668
-450.0   0.0   0.0
-500.0   30.0   0.0
-500.0   0.0   16.666666666666668
-450.0   0.0   16.666666666666668
-500.0   30.0   16.666666666666668
-500.0   0.0   33.333333333333336
-450.0   0.0   16.666666666666668
-450.0   30.0   16.666666666666668
-500.0   30.0   16.666666666666668
-450.0   30.0   33.333333333333336
-500.0   0.0   33.333333333333336
-500.0   30.0   33.333333333333336
-450.0   30.0   33.333333333333336
-500.0   30.0   16.666666666666668
-500.0   0.0   33.333333333333336
-450.0   30.0   33.333333333333336
-450.0   0.0   33.333333333333336
-450.0   0.0   16.666666666666668
-500.0   0.0   33.333333333333336
-450.0   30.0   33.333333333333336
-450.0   0.0   16.666666666666668
-500.0   30.0   16.666666666666668
-500.0   0.0   33.333333333333336
-450.0   0.0   33.333333333333336
-500.0   30.0   33.333333333333336
-500.0   0.0   50.0
-450.0   0.0   33.333333333333336
-450.0   30.0   33.333333333333336
-500.0   30.0   33.333333333333336
-450.0   30.0   50.0
-500.0   0.0   50.0
-500.0   30.0   50.0
-450.0   30.0   50.0
-500.0   30.0   33.333333333333336
-500.0   0.0   50.0
-450.0   30.0   50.0
-450.0   0.0   50.0
-450.0   0.0   33.333333333333336
-500.0   0.0   50.0
-450.0   30.0   50.0
-450.0   0.0   33.333333333333336
-500.0   30.0   33.333333333333336
-500.0   30.0   0.0
-450.0   30.0   0.0
-500.0   60.0   0.0
-500.0   30.0   16.666666666666668
-450.0   30.0   0.0
-450.0   60.0   0.0
-500.0   60.0   0.0
-450.0   60.0   16.666666666666668
-500.0   30.0   16.666666666666668
-500.0   60.0   16.666666666666668
-450.0   60.0   16.666666666666668
-500.0   60.0   0.0
-500.0   30.0   16.666666666666668
-450.0   60.0   16.666666666666668
-450.0   30.0   16.666666666666668
-450.0   30.0   0.0
-500.0   30.0   16.666666666666668
-450.0   60.0   16.666666666666668
-450.0   30.0   0.0
-500.0   60.0   0.0
-500.0   30.0   16.666666666666668
-450.0   30.0   16.666666666666668
-500.0   60.0   16.666666666666668
-500.0   30.0   33.333333333333336
-450.0   30.0   16.666666666666668
-450.0   60.0   16.666666666666668
-500.0   60.0   16.666666666666668
-450.0   60.0   33.333333333333336
-500.0   30.0   33.333333333333336
-500.0   60.0   33.333333333333336
-450.0   60.0   33.333333333333336
-500.0   60.0   16.666666666666668
-500.0   30.0   33.333333333333336
-450.0   60.0   33.333333333333336
-450.0   30.0   33.333333333333336
-450.0   30.0   16.666666666666668
-500.0   30.0   33.333333333333336
-450.0   60.0   33.333333333333336
-450.0   30.0   16.666666666666668
-500.0   60.0   16.666666666666668
-500.0   30.0   33.333333333333336
-450.0   30.0   33.333333333333336
-500.0   60.0   33.333333333333336
-500.0   30.0   50.0
-450.0   30.0   33.333333333333336
-450.0   60.0   33.333333333333336
-500.0   60.0   33.333333333333336
-450.0   60.0   50.0
-500.0   30.0   50.0
-500.0   60.0   50.0
-450.0   60.0   50.0
-500.0   60.0   33.333333333333336
-500.0   30.0   50.0
-450.0   60.0   50.0
-450.0   30.0   50.0
-450.0   30.0   33.333333333333336
-500.0   30.0   50.0
-450.0   60.0   50.0
-450.0   30.0   33.333333333333336
-500.0   60.0   33.333333333333336
-500.0   60.0   0.0
-450.0   60.0   0.0
-500.0   90.0   0.0
-500.0   60.0   16.666666666666668
-450.0   60.0   0.0
-450.0   90.0   0.0
-500.0   90.0   0.0
-450.0   90.0   16.666666666666668
-500.0   60.0   16.666666666666668
-500.0   90.0   16.666666666666668
-450.0   90.0   16.666666666666668
-500.0   90.0   0.0
-500.0   60.0   16.666666666666668
-450.0   90.0   16.666666666666668
-450.0   60.0   16.666666666666668
-450.0   60.0   0.0
-500.0   60.0   16.666666666666668
-450.0   90.0   16.666666666666668
-450.0   60.0   0.0
-500.0   90.0   0.0
-500.0   60.0   16.666666666666668
-450.0   60.0   16.666666666666668
-500.0   90.0   16.666666666666668
-500.0   60.0   33.333333333333336
-450.0   60.0   16.666666666666668
-450.0   90.0   16.666666666666668
-500.0   90.0   16.666666666666668
-450.0   90.0   33.333333333333336
-500.0   60.0   33.333333333333336
-500.0   90.0   33.333333333333336
-450.0   90.0   33.333333333333336
-500.0   90.0   16.666666666666668
-500.0   60.0   33.333333333333336
-450.0   90.0   33.333333333333336
-450.0   60.0   33.333333333333336
-450.0   60.0   16.666666666666668
-500.0   60.0   33.333333333333336
-450.0   90.0   33.333333333333336
-450.0   60.0   16.666666666666668
-500.0   90.0   16.666666666666668
-500.0   60.0   33.333333333333336
-450.0   60.0   33.333333333333336
-500.0   90.0   33.333333333333336
-500.0   60.0   50.0
-450.0   60.0   33.333333333333336
-450.0   90.0   33.333333333333336
-500.0   90.0   33.333333333333336
-450.0   90.0   50.0
-500.0   60.0   50.0
-500.0   90.0   50.0
-450.0   90.0   50.0
-500.0   90.0   33.333333333333336
-500.0   60.0   50.0
-450.0   90.0   50.0
-450.0   60.0   50.0
-450.0   60.0   33.333333333333336
-500.0   60.0   50.0
-450.0   90.0   50.0
-450.0   60.0   33.333333333333336
-500.0   90.0   33.333333333333336
-500.0   90.0   0.0
-450.0   90.0   0.0
-500.0   120.0   0.0
-500.0   90.0   16.666666666666668
-450.0   90.0   0.0
-450.0   120.0   0.0
-500.0   120.0   0.0
-450.0   120.0   16.666666666666668
-500.0   90.0   16.666666666666668
-500.0   120.0   16.666666666666668
-450.0   120.0   16.666666666666668
-500.0   120.0   0.0
-500.0   90.0   16.666666666666668
-450.0   120.0   16.666666666666668
-450.0   90.0   16.666666666666668
-450.0   90.0   0.0
-500.0   90.0   16.666666666666668
-450.0   120.0   16.666666666666668
-450.0   90.0   0.0
-500.0   120.0   0.0
-500.0   90.0   16.666666666666668
-450.0   90.0   16.666666666666668
-500.0   120.0   16.666666666666668
-500.0   90.0   33.333333333333336
-450.0   90.0   16.666666666666668
-450.0   120.0   16.666666666666668
-500.0   120.0   16.666666666666668
-450.0   120.0   33.333333333333336
-500.0   90.0   33.333333333333336
-500.0   120.0   33.333333333333336
-450.0   120.0   33.333333333333336
-500.0   120.0   16.666666666666668
-500.0   90.0   33.333333333333336
-450.0   120.0   33.333333333333336
-450.0   90.0   33.333333333333336
-450.0   90.0   16.666666666666668
-500.0   90.0   33.333333333333336
-450.0   120.0   33.333333333333336
-450.0   90.0   16.666666666666668
-500.0   120.0   16.666666666666668
-500.0   90.0   33.333333333333336
-450.0   90.0   33.333333333333336
-500.0   120.0   33.333333333333336
-500.0   90.0   50.0
-450.0   90.0   33.333333333333336
-450.0   120.0   33.333333333333336
-500.0   120.0   33.333333333333336
-450.0   120.0   50.0
-500.0   90.0   50.0
-500.0   120.0   50.0
-450.0   120.0   50.0
-500.0   120.0   33.333333333333336
-500.0   90.0   50.0
-450.0   120.0   50.0
-450.0   90.0   50.0
-450.0   90.0   33.333333333333336
-500.0   90.0   50.0
-450.0   120.0   50.0
-450.0   90.0   33.333333333333336
-500.0   120.0   33.333333333333336
-500.0   120.0   0.0
-450.0   120.0   0.0
-500.0   150.0   0.0
-500.0   120.0   16.666666666666668
-450.0   120.0   0.0
-450.0   150.0   0.0
-500.0   150.0   0.0
-450.0   150.0   16.666666666666668
-500.0   120.0   16.666666666666668
-500.0   150.0   16.666666666666668
-450.0   150.0   16.666666666666668
-500.0   150.0   0.0
-500.0   120.0   16.666666666666668
-450.0   150.0   16.666666666666668
-450.0   120.0   16.666666666666668
-450.0   120.0   0.0
-500.0   120.0   16.666666666666668
-450.0   150.0   16.666666666666668
-450.0   120.0   0.0
-500.0   150.0   0.0
-500.0   120.0   16.666666666666668
-450.0   120.0   16.666666666666668
-500.0   150.0   16.666666666666668
-500.0   120.0   33.333333333333336
-450.0   120.0   16.666666666666668
-450.0   150.0   16.666666666666668
-500.0   150.0   16.666666666666668
-450.0   150.0   33.333333333333336
-500.0   120.0   33.333333333333336
-500.0   150.0   33.333333333333336
-450.0   150.0   33.333333333333336
-500.0   150.0   16.666666666666668
-500.0   120.0   33.333333333333336
-450.0   150.0   33.333333333333336
-450.0   120.0   33.333333333333336
-450.0   120.0   16.666666666666668
-500.0   120.0   33.333333333333336
-450.0   150.0   33.333333333333336
-450.0   120.0   16.666666666666668
-500.0   150.0   16.666666666666668
-500.0   120.0   33.333333333333336
-450.0   120.0   33.333333333333336
-500.0   150.0   33.333333333333336
-500.0   120.0   50.0
-450.0   120.0   33.333333333333336
-450.0   150.0   33.333333333333336
-500.0   150.0   33.333333333333336
-450.0   150.0   50.0
-500.0   120.0   50.0
-500.0   150.0   50.0
-450.0   150.0   50.0
-500.0   150.0   33.333333333333336
-500.0   120.0   50.0
-450.0   150.0   50.0
-450.0   120.0   50.0
-450.0   120.0   33.333333333333336
-500.0   120.0   50.0
-450.0   150.0   50.0
-450.0   120.0   33.333333333333336
-500.0   150.0   33.333333333333336
-450.0   0.0   0.0
-400.0   0.0   0.0
-450.0   30.0   0.0
-450.0   0.0   16.666666666666668
-400.0   0.0   0.0
-400.0   30.0   0.0
-450.0   30.0   0.0
-400.0   30.0   16.666666666666668
-450.0   0.0   16.666666666666668
-450.0   30.0   16.666666666666668
-400.0   30.0   16.666666666666668
-450.0   30.0   0.0
-450.0   0.0   16.666666666666668
-400.0   30.0   16.666666666666668
-400.0   0.0   16.666666666666668
-400.0   0.0   0.0
-450.0   0.0   16.666666666666668
-400.0   30.0   16.666666666666668
-400.0   0.0   0.0
-450.0   30.0   0.0
-450.0   0.0   16.666666666666668
-400.0   0.0   16.666666666666668
-450.0   30.0   16.666666666666668
[...]
          <PointData>  
             <DataArray type="Float64" NumberOfComponents="3" Name="Strains" format="ascii">   
-1.301156881172154e-05   0.0   -8.765400633043916e-06
-1.301156881172154e-05   0.0   -8.765400633043916e-06
-1.301156881172154e-05   0.0   -8.765400633043916e-06
-1.301156881172154e-05   0.0   -8.765400633043916e-06
-8.257168956740587e-06   1.4114596980914288e-06   5.474944112510483e-09
-8.257168956740587e-06   1.4114596980914288e-06   5.474944112510483e-09
-8.257168956740587e-06   1.4114596980914288e-06   5.474944112510483e-09
-8.257168956740587e-06   1.4114596980914288e-06   5.474944112510483e-09
-8.078434054844386e-06   0.0   -8.302558785152473e-06
-8.078434054844386e-06   0.0   -8.302558785152473e-06
-8.078434054844386e-06   0.0   -8.302558785152473e-06
-8.078434054844386e-06   0.0   -8.302558785152473e-06
-1.3598135785059314e-05   1.7081239535861338e-06   -1.2793027361257178e-07
-1.3598135785059314e-05   1.7081239535861338e-06   -1.2793027361257178e-07
-1.3598135785059314e-05   1.7081239535861338e-06   -1.2793027361257178e-07
-1.3598135785059314e-05   1.7081239535861338e-06   -1.2793027361257178e-07
-1.0545001433282944e-05   3.857015399095365e-07   -4.423034078367223e-06
-1.0545001433282944e-05   3.857015399095365e-07   -4.423034078367223e-06
-1.0545001433282944e-05   3.857015399095365e-07   -4.423034078367223e-06
-1.0545001433282944e-05   3.857015399095365e-07   -4.423034078367223e-06
-1.3598135785059338e-05   0.0   -9.327433157304156e-06
-1.3598135785059338e-05   0.0   -9.327433157304156e-06
-1.3598135785059338e-05   0.0   -9.327433157304156e-06
-1.3598135785059338e-05   0.0   -9.327433157304156e-06
-8.078434054844386e-06   1.7081239535861372e-06   8.969440985391139e-07
-8.078434054844386e-06   1.7081239535861372e-06   8.969440985391139e-07
-8.078434054844386e-06   1.7081239535861372e-06   8.969440985391139e-07
-8.078434054844386e-06   1.7081239535861372e-06   8.969440985391139e-07
-8.084526561204816e-06   0.0   -8.501283916858447e-06
-8.084526561204816e-06   0.0   -8.501283916858447e-06
-8.084526561204816e-06   0.0   -8.501283916858447e-06
-8.084526561204816e-06   0.0   -8.501283916858447e-06
-1.4002413926501562e-05   1.8338924872245077e-06   2.615261996347985e-07
-1.4002413926501562e-05   1.8338924872245077e-06   2.615261996347985e-07
-1.4002413926501562e-05   1.8338924872245077e-06   2.615261996347985e-07
-1.4002413926501562e-05   1.8338924872245077e-06   2.615261996347985e-07
-1.084133117313206e-05   6.884577003714228e-07   -4.31968418386919e-06
-1.084133117313206e-05   6.884577003714228e-07   -4.31968418386919e-06
-1.084133117313206e-05   6.884577003714228e-07   -4.31968418386919e-06
-1.084133117313206e-05   6.884577003714228e-07   -4.31968418386919e-06
-1.4002413926501587e-05   0.0   -9.601619409193155e-06
-1.4002413926501587e-05   0.0   -9.601619409193155e-06
-1.4002413926501587e-05   0.0   -9.601619409193155e-06
-1.4002413926501587e-05   0.0   -9.601619409193155e-06
-8.084526561204803e-06   1.8338924872245077e-06   1.3618616919695034e-06
-8.084526561204803e-06   1.8338924872245077e-06   1.3618616919695034e-06
-8.084526561204803e-06   1.8338924872245077e-06   1.3618616919695034e-06
-8.084526561204803e-06   1.8338924872245077e-06   1.3618616919695034e-06
-8.061462743176183e-06   0.0   -8.554980204905388e-06
-8.061462743176183e-06   0.0   -8.554980204905388e-06
-8.061462743176183e-06   0.0   -8.554980204905388e-06
-8.061462743176183e-06   0.0   -8.554980204905388e-06
-1.4889903526822637e-05   2.101342691318657e-06   1.5649488197142142e-06
-1.4889903526822637e-05   2.101342691318657e-06   1.5649488197142142e-06
-1.4889903526822637e-05   2.101342691318657e-06   1.5649488197142142e-06
-1.4889903526822637e-05   2.101342691318657e-06   1.5649488197142142e-06
-1.1031938334838866e-05   8.721993369064701e-07   -4.1275071542780904e-06
-1.1031938334838866e-05   8.721993369064701e-07   -4.1275071542780904e-06
-1.1031938334838866e-05   8.721993369064701e-07   -4.1275071542780904e-06
-1.1031938334838866e-05   8.721993369064701e-07   -4.1275071542780904e-06
-8.257168956740602e-06   0.0   -7.918524814189058e-06
-8.257168956740602e-06   0.0   -7.918524814189058e-06
-8.257168956740602e-06   0.0   -7.918524814189058e-06
-8.257168956740602e-06   0.0   -7.918524814189058e-06
-3.779660286466673e-06   5.118849063727964e-07   -1.4887941990883877e-07
-3.779660286466673e-06   5.118849063727964e-07   -1.4887941990883877e-07
-3.779660286466673e-06   5.118849063727964e-07   -1.4887941990883877e-07
-3.779660286466673e-06   5.118849063727964e-07   -1.4887941990883877e-07
-3.618956973313767e-06   0.0   -7.859375196558435e-06
-3.618956973313767e-06   0.0   -7.859375196558435e-06
-3.618956973313767e-06   0.0   -7.859375196558435e-06
-3.618956973313767e-06   0.0   -7.859375196558435e-06
-8.078434054844386e-06   7.386393143233744e-07   -8.700969826014542e-07
-8.078434054844386e-06   7.386393143233744e-07   -8.700969826014542e-07
-8.078434054844386e-06   7.386393143233744e-07   -8.700969826014542e-07
-8.078434054844386e-06   7.386393143233744e-07   -8.700969826014542e-07
-5.938062965027177e-06   4.9291348025508456e-08   -4.023773352518053e-06
-5.938062965027177e-06   4.9291348025508456e-08   -4.023773352518053e-06
-5.938062965027177e-06   4.9291348025508456e-08   -4.023773352518053e-06
-5.938062965027177e-06   4.9291348025508456e-08   -4.023773352518053e-06
-8.078434054844379e-06   0.0   -8.302558785152467e-06
-8.078434054844379e-06   0.0   -8.302558785152467e-06
-8.078434054844379e-06   0.0   -8.302558785152467e-06
-8.078434054844379e-06   0.0   -8.302558785152467e-06
-3.618956973313767e-06   7.386393143233727e-07   -4.2691339400742867e-07
-3.618956973313767e-06   7.386393143233727e-07   -4.2691339400742867e-07
-3.618956973313767e-06   7.386393143233727e-07   -4.2691339400742867e-07
-3.618956973313767e-06   7.386393143233727e-07   -4.2691339400742867e-07
-3.5218785485863944e-06   0.0   -7.95458001864733e-06
-3.5218785485863944e-06   0.0   -7.95458001864733e-06
-3.5218785485863944e-06   0.0   -7.95458001864733e-06
-3.5218785485863944e-06   0.0   -7.95458001864733e-06
-8.084526561204816e-06   9.111731636851717e-07   -8.96870562494422e-07
-8.084526561204816e-06   9.111731636851717e-07   -8.96870562494422e-07
-8.084526561204816e-06   9.111731636851717e-07   -8.96870562494422e-07
-8.084526561204816e-06   9.111731636851717e-07   -8.96870562494422e-07
-5.800156301715391e-06   2.899823054209409e-07   -4.331439813351582e-06
-5.800156301715391e-06   2.899823054209409e-07   -4.331439813351582e-06
-5.800156301715391e-06   2.899823054209409e-07   -4.331439813351582e-06
-5.800156301715391e-06   2.899823054209409e-07   -4.331439813351582e-06
-8.084526561204816e-06   0.0   -8.501283916858447e-06
-8.084526561204816e-06   0.0   -8.501283916858447e-06
-8.084526561204816e-06   0.0   -8.501283916858447e-06
-8.084526561204816e-06   0.0   -8.501283916858447e-06
-3.5218785485864007e-06   9.111731636851717e-07   -3.5016666428331964e-07
-3.5218785485864007e-06   9.111731636851717e-07   -3.5016666428331964e-07
-3.5218785485864007e-06   9.111731636851717e-07   -3.5016666428331964e-07
-3.5218785485864007e-06   9.111731636851717e-07   -3.5016666428331964e-07
-3.430723927042589e-06   0.0   -7.916451089397108e-06
-3.430723927042589e-06   0.0   -7.916451089397108e-06
-3.430723927042589e-06   0.0   -7.916451089397108e-06
-3.430723927042589e-06   0.0   -7.916451089397108e-06
-8.06146274317616e-06   1.064215192513789e-06   -8.37082178016061e-07
-8.06146274317616e-06   1.064215192513789e-06   -8.37082178016061e-07
-8.06146274317616e-06   1.064215192513789e-06   -8.37082178016061e-07
-8.06146274317616e-06   1.064215192513789e-06   -8.37082178016061e-07
-5.757625244123701e-06   4.873606895511108e-07   -4.330698641325921e-06
-5.757625244123701e-06   4.873606895511108e-07   -4.330698641325921e-06
-5.757625244123701e-06   4.873606895511108e-07   -4.330698641325921e-06
-5.757625244123701e-06   4.873606895511108e-07   -4.330698641325921e-06
-3.7796602864666797e-06   0.0   -7.611393870365381e-06
-3.7796602864666797e-06   0.0   -7.611393870365381e-06
-3.7796602864666797e-06   0.0   -7.611393870365381e-06
-3.7796602864666797e-06   0.0   -7.611393870365381e-06
4.364803614625127e-07   -6.993256020091485e-08   -6.264523266039356e-07
4.364803614625127e-07   -6.993256020091485e-08   -6.264523266039356e-07
4.364803614625127e-07   -6.993256020091485e-08   -6.264523266039356e-07
4.364803614625127e-07   -6.993256020091485e-08   -6.264523266039356e-07
5.467938193259376e-07   0.0   -7.779658742561189e-06
5.467938193259376e-07   0.0   -7.779658742561189e-06
5.467938193259376e-07   0.0   -7.779658742561189e-06
5.467938193259376e-07   0.0   -7.779658742561189e-06
-3.618956973313767e-06   1.3286075666205406e-07   -9.164572088255931e-07
-3.618956973313767e-06   1.3286075666205406e-07   -9.164572088255931e-07
-3.618956973313767e-06   1.3286075666205406e-07   -9.164572088255931e-07
-3.618956973313767e-06   1.3286075666205406e-07   -9.164572088255931e-07
-1.6164332335703673e-06   -1.4022072682986185e-07   -4.090147884969439e-06
-1.6164332335703673e-06   -1.4022072682986185e-07   -4.090147884969439e-06
-1.6164332335703673e-06   -1.4022072682986185e-07   -4.090147884969439e-06
-1.6164332335703673e-06   -1.4022072682986185e-07   -4.090147884969439e-06
-3.6189569733137733e-06   0.0   -7.859375196558449e-06
-3.6189569733137733e-06   0.0   -7.859375196558449e-06
-3.6189569733137733e-06   0.0   -7.859375196558449e-06
-3.6189569733137733e-06   0.0   -7.859375196558449e-06
5.467938193259385e-07   1.3286075666205406e-07   -8.367407548283604e-07
5.467938193259385e-07   1.3286075666205406e-07   -8.367407548283604e-07
5.467938193259385e-07   1.3286075666205406e-07   -8.367407548283604e-07
5.467938193259385e-07   1.3286075666205406e-07   -8.367407548283604e-07
6.360661970022597e-07   0.0   -7.767247078738778e-06
6.360661970022597e-07   0.0   -7.767247078738778e-06
6.360661970022597e-07   0.0   -7.767247078738778e-06
6.360661970022597e-07   0.0   -7.767247078738778e-06
-3.5218785485863884e-06   3.1222156651425386e-07   -1.024672109332906e-06
-3.5218785485863884e-06   3.1222156651425386e-07   -1.024672109332906e-06
-3.5218785485863884e-06   3.1222156651425386e-07   -1.024672109332906e-06
-3.5218785485863884e-06   3.1222156651425386e-07   -1.024672109332906e-06
-1.4914453881557536e-06   7.677343151638148e-08   -4.267458495718581e-06
-1.4914453881557536e-06   7.677343151638148e-08   -4.267458495718581e-06
-1.4914453881557536e-06   7.677343151638148e-08   -4.267458495718581e-06
-1.4914453881557536e-06   7.677343151638148e-08   -4.267458495718581e-06
-3.5218785485864007e-06   0.0   -7.954580018647344e-06
-3.5218785485864007e-06   0.0   -7.954580018647344e-06
-3.5218785485864007e-06   0.0   -7.954580018647344e-06
-3.5218785485864007e-06   0.0   -7.954580018647344e-06
6.360661970022608e-07   3.1222156651425386e-07   -8.373391694243568e-07
6.360661970022608e-07   3.1222156651425386e-07   -8.373391694243568e-07
6.360661970022608e-07   3.1222156651425386e-07   -8.373391694243568e-07
6.360661970022608e-07   3.1222156651425386e-07   -8.373391694243568e-07
7.506422246996845e-07   0.0   -7.605066232057808e-06
7.506422246996845e-07   0.0   -7.605066232057808e-06
7.506422246996845e-07   0.0   -7.605066232057808e-06
7.506422246996845e-07   0.0   -7.605066232057808e-06
-3.430723927042586e-06   5.189747622321541e-07   -9.475075031599847e-07
-3.430723927042586e-06   5.189747622321541e-07   -9.475075031599847e-07
-3.430723927042586e-06   5.189747622321541e-07   -9.475075031599847e-07
-3.430723927042586e-06   5.189747622321541e-07   -9.475075031599847e-07
-1.385618161943355e-06   2.9126148882460195e-07   -4.219389147614167e-06
-1.385618161943355e-06   2.9126148882460195e-07   -4.219389147614167e-06
-1.385618161943355e-06   2.9126148882460195e-07   -4.219389147614167e-06
-1.385618161943355e-06   2.9126148882460195e-07   -4.219389147614167e-06
4.3648036146251343e-07   0.0   -7.65335340648593e-06
4.3648036146251343e-07   0.0   -7.65335340648593e-06
4.3648036146251343e-07   0.0   -7.65335340648593e-06
4.3648036146251343e-07   0.0   -7.65335340648593e-06
5.027236771108268e-06   -5.897314647185468e-07   -3.559316025740998e-07
5.027236771108268e-06   -5.897314647185468e-07   -3.559316025740998e-07
5.027236771108268e-06   -5.897314647185468e-07   -3.559316025740998e-07
5.027236771108268e-06   -5.897314647185468e-07   -3.559316025740998e-07
5.057065175192305e-06   0.0   -8.04358375875315e-06
5.057065175192305e-06   0.0   -8.04358375875315e-06
5.057065175192305e-06   0.0   -8.04358375875315e-06
5.057065175192305e-06   0.0   -8.04358375875315e-06
5.467938193259385e-07   -4.398750269865567e-07   -2.625398161172724e-07
5.467938193259385e-07   -4.398750269865567e-07   -2.625398161172724e-07
5.467938193259385e-07   -4.398750269865567e-07   -2.625398161172724e-07
5.467938193259385e-07   -4.398750269865567e-07   -2.625398161172724e-07
2.746772768327409e-06   -3.251919602226836e-07   -3.9979812378447105e-06
2.746772768327409e-06   -3.251919602226836e-07   -3.9979812378447105e-06
2.746772768327409e-06   -3.251919602226836e-07   -3.9979812378447105e-06
2.746772768327409e-06   -3.251919602226836e-07   -3.9979812378447105e-06
5.467938193259395e-07   0.0   -7.779658742561216e-06
5.467938193259395e-07   0.0   -7.779658742561216e-06
5.467938193259395e-07   0.0   -7.779658742561216e-06
5.467938193259395e-07   0.0   -7.779658742561216e-06
5.057065175192297e-06   -4.398750269865567e-07   -5.264648323092063e-07
5.057065175192297e-06   -4.398750269865567e-07   -5.264648323092063e-07
5.057065175192297e-06   -4.398750269865567e-07   -5.264648323092063e-07
5.057065175192297e-06   -4.398750269865567e-07   -5.264648323092063e-07
5.053408354964278e-06   0.0   -7.92887407228015e-06
5.053408354964278e-06   0.0   -7.92887407228015e-06
5.053408354964278e-06   0.0   -7.92887407228015e-06
5.053408354964278e-06   0.0   -7.92887407228015e-06
6.360661970022608e-07   -2.693783225689311e-07   -4.050101488020965e-07
6.360661970022608e-07   -2.693783225689311e-07   -4.050101488020965e-07
6.360661970022608e-07   -2.693783225689311e-07   -4.050101488020965e-07
6.360661970022608e-07   -2.693783225689311e-07   -4.050101488020965e-07
2.8001010871451085e-06   -1.243461080991128e-07   -4.098754294388732e-06
2.8001010871451085e-06   -1.243461080991128e-07   -4.098754294388732e-06
2.8001010871451085e-06   -1.243461080991128e-07   -4.098754294388732e-06
2.8001010871451085e-06   -1.243461080991128e-07   -4.098754294388732e-06
6.360661970022608e-07   0.0   -7.767247078738791e-06
6.360661970022608e-07   0.0   -7.767247078738791e-06
6.360661970022608e-07   0.0   -7.767247078738791e-06
6.360661970022608e-07   0.0   -7.767247078738791e-06
5.053408354964269e-06   -2.693783225689311e-07   -5.666371423434533e-07
5.053408354964269e-06   -2.693783225689311e-07   -5.666371423434533e-07
5.053408354964269e-06   -2.693783225689311e-07   -5.666371423434533e-07
5.053408354964269e-06   -2.693783225689311e-07   -5.666371423434533e-07
5.168575062589247e-06   0.0   -7.629885727194679e-06
5.168575062589247e-06   0.0   -7.629885727194679e-06
5.168575062589247e-06   0.0   -7.629885727194679e-06
5.168575062589247e-06   0.0   -7.629885727194679e-06
7.506422246996858e-07   -4.1365825228096816e-08   -2.418448355752197e-07
7.506422246996858e-07   -4.1365825228096816e-08   -2.418448355752197e-07
7.506422246996858e-07   -4.1365825228096816e-08   -2.418448355752197e-07
7.506422246996858e-07   -4.1365825228096816e-08   -2.418448355752197e-07
2.902320629795754e-06   1.1446779295342661e-07   -3.921475681644244e-06
2.902320629795754e-06   1.1446779295342661e-07   -3.921475681644244e-06
2.902320629795754e-06   1.1446779295342661e-07   -3.921475681644244e-06
2.902320629795754e-06   1.1446779295342661e-07   -3.921475681644244e-06
5.027236771108286e-06   0.0   -8.00719228531706e-06
5.027236771108286e-06   0.0   -8.00719228531706e-06
5.027236771108286e-06   0.0   -8.00719228531706e-06
5.027236771108286e-06   0.0   -8.00719228531706e-06
1.1460153835278909e-05   -1.5090194608070879e-06   1.8089244784830957e-06
1.1460153835278909e-05   -1.5090194608070879e-06   1.8089244784830957e-06
1.1460153835278909e-05   -1.5090194608070879e-06   1.8089244784830957e-06
1.1460153835278909e-05   -1.5090194608070879e-06   1.8089244784830957e-06
1.079006733867128e-05   0.0   -8.807325162908588e-06
1.079006733867128e-05   0.0   -8.807325162908588e-06
1.079006733867128e-05   0.0   -8.807325162908588e-06
1.079006733867128e-05   0.0   -8.807325162908588e-06
5.057065175192297e-06   -1.2729023402590588e-06   1.5114198470451385e-06
5.057065175192297e-06   -1.2729023402590588e-06   1.5114198470451385e-06
5.057065175192297e-06   -1.2729023402590588e-06   1.5114198470451385e-06
5.057065175192297e-06   -1.2729023402590588e-06   1.5114198470451385e-06
7.908652054889783e-06   -6.667773979929405e-07   -3.6048999178103247e-06
7.908652054889783e-06   -6.667773979929405e-07   -3.6048999178103247e-06
7.908652054889783e-06   -6.667773979929405e-07   -3.6048999178103247e-06
7.908652054889783e-06   -6.667773979929405e-07   -3.6048999178103247e-06
5.057065175192301e-06   0.0   -8.043583758753143e-06
5.057065175192301e-06   0.0   -8.043583758753143e-06
5.057065175192301e-06   0.0   -8.043583758753143e-06
5.057065175192301e-06   0.0   -8.043583758753143e-06
1.079006733867128e-05   -1.2729023402590622e-06   7.476784428897056e-07
1.079006733867128e-05   -1.2729023402590622e-06   7.476784428897056e-07
1.079006733867128e-05   -1.2729023402590622e-06   7.476784428897056e-07
1.079006733867128e-05   -1.2729023402590622e-06   7.476784428897056e-07
1.0489194918621581e-05   0.0   -8.624413389309531e-06
1.0489194918621581e-05   0.0   -8.624413389309531e-06
1.0489194918621581e-05   0.0   -8.624413389309531e-06
1.0489194918621581e-05   0.0   -8.624413389309531e-06
5.053408354964269e-06   -1.1592321950489668e-06   1.1307702004820182e-06
5.053408354964269e-06   -1.1592321950489668e-06   1.1307702004820182e-06
5.053408354964269e-06   -1.1592321950489668e-06   1.1307702004820182e-06
5.053408354964269e-06   -1.1592321950489668e-06   1.1307702004820182e-06
7.773130046906939e-06   -4.840246921303179e-07   -3.80722378784027e-06
7.773130046906939e-06   -4.840246921303179e-07   -3.80722378784027e-06
7.773130046906939e-06   -4.840246921303179e-07   -3.80722378784027e-06
7.773130046906939e-06   -4.840246921303179e-07   -3.80722378784027e-06
5.053408354964278e-06   0.0   -7.92887407228015e-06
5.053408354964278e-06   0.0   -7.92887407228015e-06
5.053408354964278e-06   0.0   -7.92887407228015e-06
5.053408354964278e-06   0.0   -7.92887407228015e-06
1.0489194918621563e-05   -1.1592321950489668e-06   4.3523088345263745e-07
1.0489194918621563e-05   -1.1592321950489668e-06   4.3523088345263745e-07
1.0489194918621563e-05   -1.1592321950489668e-06   4.3523088345263745e-07
1.0489194918621563e-05   -1.1592321950489668e-06   4.3523088345263745e-07
1.0028698233517528e-05   0.0   -8.162694671001556e-06
1.0028698233517528e-05   0.0   -8.162694671001556e-06
1.0028698233517528e-05   0.0   -8.162694671001556e-06
1.0028698233517528e-05   0.0   -8.162694671001556e-06
5.168575062589234e-06   -8.880149063447935e-07   4.703195576857927e-07
5.168575062589234e-06   -8.880149063447935e-07   4.703195576857927e-07
5.168575062589234e-06   -8.880149063447935e-07   4.703195576857927e-07
5.168575062589234e-06   -8.880149063447935e-07   4.703195576857927e-07
7.54105329424089e-06   -1.9485049893450374e-07   -3.8997094728464686e-06
7.54105329424089e-06   -1.9485049893450374e-07   -3.8997094728464686e-06
7.54105329424089e-06   -1.9485049893450374e-07   -3.8997094728464686e-06
7.54105329424089e-06   -1.9485049893450374e-07   -3.8997094728464686e-06
-1.1122161246849772e-05   1.4114596980914271e-06   -7.447797858020811e-06
-1.1122161246849772e-05   1.4114596980914271e-06   -7.447797858020811e-06
-1.1122161246849772e-05   1.4114596980914271e-06   -7.447797858020811e-06
-1.1122161246849772e-05   1.4114596980914271e-06   -7.447797858020811e-06
-7.138690086180189e-06   1.2591770111733337e-06   -9.000488690556949e-07