<?xml version="1.0"?> 
<VTKFile type="UnstructuredGrid"> 
   <UnstructuredGrid> 
      <Piece NumberOfPoints="6000"  NumberOfCells="1500">  
          <Points>  
             <DataArray type="Float64" NumberOfComponents="3" format="ascii">   
-500.0   0.0   0.0
-450.0   0.0   0.0
-500.0   30.0   0.0
-500.0   0.0   16.666666666666668
-450.0   0.0   0.0
-450.0   30.0   0.0
-500.0   30.0   0.0
-450.0   30.0   16.666666666666668
-500.0   0.0   16.666666666666668
-500.0   30.0   16.666666666666668
-450.0   30.0   16.666666666666668
-500.0   30.0   0.0
-500.0   0.0   16.666666666666668
-450.0   30.0   16.666666666666668
-450.0   0.0   16.666666666666668
-450.0   0.0   0.0
-500.0   0.0   16.666666666666668
-450.0   30.0   16.666666666666668
-450.0   0.0   0.0
-500.0   30.0   0.0
-500.0   0.0   16.666666666666668
-450.0   0.0   16.666666666666668
-500.0   30.0   16.666666666666668
-500.0   0.0   33.333333333333336
-450.0   0.0   16.666666666666668
-450.0   30.0   16.666666666666668
-500.0   30.0   16.666666666666668
-450.0   30.0   33.333333333333336
-500.0   0.0   33.333333333333336
-500.0   30.0   33.333333333333336
-450.0   30.0   33.333333333333336
-500.0   30.0   16.666666666666668
-500.0   0.0   33.333333333333336
-450.0   30.0   33.333333333333336
-450.0   0.0   33.333333333333336
-450.0   0.0   16.666666666666668
-500.0   0.0   33.333333333333336
-450.0   30.0   33.333333333333336
-450.0   0.0   16.666666666666668
-500.0   30.0   16.666666666666668
-500.0   0.0   33.333333333333336
-450.0   0.0   33.333333333333336
-500.0   30.0   33.333333333333336
-500.0   0.0   50.0
-450.0   0.0   33.333333333333336
-450.0   30.0   33.333333333333336
-500.0   30.0   33.333333333333336
-450.0   30.0   50.0
-500.0   0.0   50.0
-500.0   30.0   50.0
-450.0   30.0   50.0
-500.0   30.0   33.333333333333336
-500.0   0.0   50.0
-450.0   30.0   50.0
-450.0   0.0   50.0
-450.0   0.0   33.333333333333336
-500.0   0.0   50.0
-450.0   30.0   50.0
-450.0   0.0   33.333333333333336
-500.0   30.0   33.333333333333336
-500.0   30.0   0.0
-450.0   30.0   0.0
-500.0   60.0   0.0
-500.0   30.0   16.666666666666668
-450.0   30.0   0.0
-450.0   60.0   0.0
-500.0   60.0   0.0
-450.0   60.0   16.666666666666668
-500.0   30.0   16.666666666666668
-500.0   60.0   16.666666666666668
-450.0   60.0   16.666666666666668
-500.0   60.0   0.0
-500.0   30.0   16.666666666666668
-450.0   60.0   16.666666666666668
-450.0   30.0   16.666666666666668
-450.0   30.0   0.0
-500.0   30.0   16.666666666666668
-450.0   60.0   16.666666666666668
-450.0   30.0   0.0
-500.0   60.0   0.0
-500.0   30.0   16.666666666666668
-450.0   30.0   16.666666666666668
-500.0   60.0   16.666666666666668
-500.0   30.0   33.333333333333336
-450.0   30.0   16.666666666666668
-450.0   60.0   16.666666666666668
-500.0   60.0   16.666666666666668
-450.0   60.0   33.333333333333336
-500.0   30.0   33.333333333333336
-500.0   60.0   33.333333333333336
-450.0   60.0   33.333333333333336
-500.0   60.0   16.666666666666668
-500.0   30.0   33.333333333333336
-450.0   60.0   33.333333333333336
-450.0   30.0   33.333333333333336
-450.0   30.0   16.666666666666668
-500.0   30.0   33.333333333333336
-450.0   60.0   33.333333333333336
-450.0   30.0   16.666666666666668
-500.0   60.0   16.666666666666668
-500.0   30.0   33.333333333333336
-450.0   30.0   33.333333333333336
-500.0   60.0   33.333333333333336
-500.0   30.0   50.0
-450.0   30.0   33.333333333333336
-450.0   60.0   33.333333333333336
-500.0   60.0   33.333333333333336
-450.0   60.0   50.0
-500.0   30.0   50.0
-500.0   60.0   50.0
-450.0   60.0   50.0
-500.0   60.0   33.333333333333336
-500.0   30.0   50.0
-450.0   60.0   50.0
-450.0   30.0   50.0
-450.0   30.0   33.333333333333336
-500.0   30.0   50.0
-450.0   60.0   50.0
-450.0   30.0   33.333333333333336
-500.0   60.0   33.333333333333336
-500.0   60.0   0.0
-450.0   60.0   0.0
-500.0   90.0   0.0
-500.0   60.0   16.666666666666668
-450.0   60.0   0.0
-450.0   90.0   0.0
-500.0   90.0   0.0
-450.0   90.0   16.666666666666668
-500.0   60.0   16.666666666666668
-500.0   90.0   16.666666666666668
-450.0   90.0   16.666666666666668
-500.0   90.0   0.0
-500.0   60.0   16.666666666666668
-450.0   90.0   16.666666666666668
-450.0   60.0   16.666666666666668
-450.0   60.0   0.0
-500.0   60.0   16.666666666666668
-450.0   90.0   16.666666666666668
-450.0   60.0   0.0
-500.0   90.0   0.0
-500.0   60.0   16.666666666666668
-450.0   60.0   16.666666666666668
-500.0   90.0   16.666666666666668
-500.0   60.0   33.333333333333336
-450.0   60.0   16.666666666666668
-450.0   90.0   16.666666666666668
-500.0   90.0   16.666666666666668
-450.0   90.0   33.333333333333336
-500.0   60.0   33.333333333333336
-500.0   90.0   33.333333333333336
-450.0   90.0   33.333333333333336
-500.0   90.0   16.666666666666668
-500.0   60.0   33.333333333333336
-450.0   90.0   33.333333333333336
-450.0   60.0   33.333333333333336
-450.0   60.0   16.666666666666668
-500.0   60.0   33.333333333333336
-450.0   90.0   33.333333333333336
-450.0   60.0   16.666666666666668
-500.0   90.0   16.666666666666668
-500.0   60.0   33.333333333333336
-450.0   60.0   33.333333333333336
-500.0   90.0   33.333333333333336
-500.0   60.0   50.0
-450.0   60.0   33.333333333333336
-450.0   90.0   33.333333333333336
-500.0   90.0   33.333333333333336
-450.0   90.0   50.0
-500.0   60.0   50.0
-500.0   90.0   50.0
-450.0   90.0   50.0
-500.0   90.0   33.333333333333336
-500.0   60.0   50.0
-450.0   90.0   50.0
-450.0   60.0   50.0
-450.0   60.0   33.333333333333336
-500.0   60.0   50.0
-450.0   90.0   50.0
-450.0   60.0   33.333333333333336
-500.0   90.0   33.333333333333336
-500.0   90.0   0.0
-450.0   90.0   0.0
-500.0   120.0   0.0
-500.0   90.0   16.666666666666668
-450.0   90.0   0.0
-450.0   120.0   0.0
-500.0   120.0   0.0
-450.0   120.0   16.666666666666668
-500.0   90.0   16.666666666666668
-500.0   120.0   16.666666666666668
-450.0   120.0   16.666666666666668
-500.0   120.0   0.0
-500.0   90.0   16.666666666666668
-450.0   120.0   16.666666666666668
-450.0   90.0   16.666666666666668
-450.0   90.0   0.0
-500.0   90.0   16.666666666666668
-450.0   120.0   16.666666666666668
-450.0   90.0   0.0
-500.0   120.0   0.0
-500.0   90.0   16.666666666666668
-450.0   90.0   16.666666666666668
-500.0   120.0   16.666666666666668
-500.0   90.0   33.333333333333336
-450.0   90.0   16.666666666666668
-450.0   120.0   16.666666666666668
-500.0   120.0   16.666666666666668
-450.0   120.0   33.333333333333336
-500.0   90.0   33.333333333333336
-500.0   120.0   33.333333333333336
-450.0   120.0   33.333333333333336
-500.0   120.0   16.666666666666668
-500.0   90.0   33.333333333333336
-450.0   120.0   33.333333333333336
-450.0   90.0   33.333333333333336
-450.0   90.0   16.666666666666668
-500.0   90.0   33.333333333333336
-450.0   120.0   33.333333333333336
-450.0   90.0   16.666666666666668
-500.0   120.0   16.666666666666668
-500.0   90.0   33.333333333333336
-450.0   90.0   33.333333333333336
-500.0   120.0   33.333333333333336
-500.0   90.0   50.0
-450.0   90.0   33.333333333333336
-450.0   120.0   33.333333333333336
-500.0   120.0   33.333333333333336
-450.0   120.0   50.0
-500.0   90.0   50.0
-500.0   120.0   50.0
-450.0   120.0   50.0
-500.0   120.0   33.333333333333336
-500.0   90.0   50.0
-450.0   120.0   50.0
-450.0   90.0   50.0
-450.0   90.0   33.333333333333336
-500.0   90.0   50.0
-450.0   120.0   50.0
-450.0   90.0   33.333333333333336
-500.0   120.0   33.333333333333336
-500.0   120.0   0.0
-450.0   120.0   0.0
-500.0   150.0   0.0
-500.0   120.0   16.666666666666668
-450.0   120.0   0.0
-450.0   150.0   0.0
-500.0   150.0   0.0
-450.0   150.0   16.666666666666668
-500.0   120.0   16.666666666666668
-500.0   150.0   16.666666666666668
-450.0   150.0   16.666666666666668
-500.0   150.0   0.0
-500.0   120.0   16.666666666666668
-450.0   150.0   16.666666666666668
-450.0   120.0   16.666666666666668
-450.0   120.0   0.0
-500.0   120.0   16.666666666666668
-450.0   150.0   16.666666666666668
-450.0   120.0   0.0
-500.0   150.0   0.0
-500.0   120.0   16.666666666666668
-450.0   120.0   16.666666666666668
-500.0   150.0   16.666666666666668
-500.0   120.0   33.333333333333336
-450.0   120.0   16.666666666666668
-450.0   150.0   16.666666666666668
-500.0   150.0   16.666666666666668
-450.0   150.0   33.333333333333336
-500.0   120.0   33.333333333333336
-500.0   150.0   33.333333333333336
-450.0   150.0   33.333333333333336
-500.0   150.0   16.666666666666668
-500.0   120.0   33.333333333333336
-450.0   150.0   33.333333333333336
-450.0   120.0   33.333333333333336
-450.0   120.0   16.666666666666668
-500.0   120.0   33.333333333333336
-450.0   150.0   33.333333333333336
-450.0   120.0   16.666666666666668
-500.0   150.0   16.666666666666668
-500.0   120.0   33.333333333333336
-450.0   120.0   33.333333333333336
-500.0   150.0   33.333333333333336
-500.0   120.0   50.0
-450.0   120.0   33.333333333333336
-450.0   150.0   33.333333333333336
-500.0   150.0   33.333333333333336
-450.0   150.0   50.0
-500.0   120.0   50.0
-500.0   150.0   50.0
-450.0   150.0   50.0
-500.0   150.0   33.333333333333336
-500.0   120.0   50.0
-450.0   150.0   50.0
-450.0   120.0   50.0
-450.0   120.0   33.333333333333336
-500.0   120.0   50.0
-450.0   150.0   50.0
-450.0   120.0   33.333333333333336
-500.0   150.0   33.333333333333336
-450.0   0.0   0.0
-400.0   0.0   0.0
-450.0   30.0   0.0
-450.0   0.0   16.666666666666668
-400.0   0.0   0.0
-400.0   30.0   0.0
-450.0   30.0   0.0
-400.0   30.0   16.666666666666668
-450.0   0.0   16.666666666666668
-450.0   30.0   16.666666666666668
-400.0   30.0   16.666666666666668
-450.0   30.0   0.0
-450.0   0.0   16.666666666666668
-400.0   30.0   16.666666666666668
-400.0   0.0   16.666666666666668
-400.0   0.0   0.0
-450.0   0.0   16.666666666666668
-400.0   30.0   16.666666666666668
-400.0   0.0   0.0
-450.0   30.0   0.0
-450.0   0.0   16.666666666666668
-400.0   0.0   16.666666666666668
-450.0   30.0   16.666666666666668
[...]
          <PointData>  
             <DataArray type="Float64" NumberOfComponents="3" Name="Strains" format="ascii">   
-5.0563138292276295e-05   0.0   -3.3306510373250724e-05
-5.0563138292276295e-05   0.0   -3.3306510373250724e-05
-5.0563138292276295e-05   0.0   -3.3306510373250724e-05
-5.0563138292276295e-05   0.0   -3.3306510373250724e-05
-3.2162252911422126e-05   5.585260096377719e-06   7.127879859994516e-07
-3.2162252911422126e-05   5.585260096377719e-06   7.127879859994516e-07
-3.2162252911422126e-05   5.585260096377719e-06   7.127879859994516e-07
-3.2162252911422126e-05   5.585260096377719e-06   7.127879859994516e-07
-3.1517942177978746e-05   0.0   -3.145082094114929e-05
-3.1517942177978746e-05   0.0   -3.145082094114929e-05
-3.1517942177978746e-05   0.0   -3.145082094114929e-05
-3.1517942177978746e-05   0.0   -3.145082094114929e-05
-5.290652083237735e-05   6.7103096631653645e-06   1.7062435161597383e-07
-5.290652083237735e-05   6.7103096631653645e-06   1.7062435161597383e-07
-5.290652083237735e-05   6.7103096631653645e-06   1.7062435161597383e-07
-5.290652083237735e-05   6.7103096631653645e-06   1.7062435161597383e-07
-4.104054023512745e-05   1.5464078600845274e-06   -1.650766889528535e-05
-4.104054023512745e-05   1.5464078600845274e-06   -1.650766889528535e-05
-4.104054023512745e-05   1.5464078600845274e-06   -1.650766889528535e-05
-4.104054023512745e-05   1.5464078600845274e-06   -1.650766889528535e-05
-5.290652083237744e-05   0.0   -3.547700673904852e-05
-5.290652083237744e-05   0.0   -3.547700673904852e-05
-5.290652083237744e-05   0.0   -3.547700673904852e-05
-5.290652083237744e-05   0.0   -3.547700673904852e-05
-3.1517942177978746e-05   6.710309663165378e-06   4.196810149515201e-06
-3.1517942177978746e-05   6.710309663165378e-06   4.196810149515201e-06
-3.1517942177978746e-05   6.710309663165378e-06   4.196810149515201e-06
-3.1517942177978746e-05   6.710309663165378e-06   4.196810149515201e-06
-3.15979123117802e-05   0.0   -3.221822667534116e-05
-3.15979123117802e-05   0.0   -3.221822667534116e-05
-3.15979123117802e-05   0.0   -3.221822667534116e-05
-3.15979123117802e-05   0.0   -3.221822667534116e-05
-5.4548162252191785e-05   7.191186078055829e-06   1.71747824517813e-06
-5.4548162252191785e-05   7.191186078055829e-06   1.71747824517813e-06
-5.4548162252191785e-05   7.191186078055829e-06   1.71747824517813e-06
-5.4548162252191785e-05   7.191186078055829e-06   1.71747824517813e-06
-4.2252216572078753e-05   2.7156500530894654e-06   -1.6090442940030432e-05
-4.2252216572078753e-05   2.7156500530894654e-06   -1.6090442940030432e-05
-4.2252216572078753e-05   2.7156500530894654e-06   -1.6090442940030432e-05
-4.2252216572078753e-05   2.7156500530894654e-06   -1.6090442940030432e-05
-5.454816225219188e-05   0.0   -3.653293832217467e-05
-5.454816225219188e-05   0.0   -3.653293832217467e-05
-5.454816225219188e-05   0.0   -3.653293832217467e-05
-5.454816225219188e-05   0.0   -3.653293832217467e-05
-3.159791231178015e-05   7.191186078055829e-06   6.032189892011626e-06
-3.159791231178015e-05   7.191186078055829e-06   6.032189892011626e-06
-3.159791231178015e-05   7.191186078055829e-06   6.032189892011626e-06
-3.159791231178015e-05   7.191186078055829e-06   6.032189892011626e-06
-3.157125288341876e-05   0.0   -3.2416825308899464e-05
-3.157125288341876e-05   0.0   -3.2416825308899464e-05
-3.157125288341876e-05   0.0   -3.2416825308899464e-05
-3.157125288341876e-05   0.0   -3.2416825308899464e-05
-5.809355832668389e-05   8.198794460607454e-06   6.867740420178105e-06
-5.809355832668389e-05   8.198794460607454e-06   6.867740420178105e-06
-5.809355832668389e-05   8.198794460607454e-06   6.867740420178105e-06
-5.809355832668389e-05   8.198794460607454e-06   6.867740420178105e-06
-4.3059707567805246e-05   3.4300941777293283e-06   -1.5327457341559423e-05
-4.3059707567805246e-05   3.4300941777293283e-06   -1.5327457341559423e-05
-4.3059707567805246e-05   3.4300941777293283e-06   -1.5327457341559423e-05
-4.3059707567805246e-05   3.4300941777293283e-06   -1.5327457341559423e-05
-3.216225291142218e-05   0.0   -2.995535431542409e-05
-3.216225291142218e-05   0.0   -2.995535431542409e-05
-3.216225291142218e-05   0.0   -2.995535431542409e-05
-3.216225291142218e-05   0.0   -2.995535431542409e-05
-1.4657174646693428e-05   2.045334662580205e-06   4.469769233386035e-07
-1.4657174646693428e-05   2.045334662580205e-06   4.469769233386035e-07
-1.4657174646693428e-05   2.045334662580205e-06   4.469769233386035e-07
-1.4657174646693428e-05   2.045334662580205e-06   4.469769233386035e-07
-1.408837330164017e-05   0.0   -2.9700471844037468e-05
-1.408837330164017e-05   0.0   -2.9700471844037468e-05
-1.408837330164017e-05   0.0   -2.9700471844037468e-05
-1.408837330164017e-05   0.0   -2.9700471844037468e-05
-3.1517942177978746e-05   2.917248495186287e-06   -2.4015394805850413e-06
-3.1517942177978746e-05   2.917248495186287e-06   -2.4015394805850413e-06
-3.1517942177978746e-05   2.917248495186287e-06   -2.4015394805850413e-06
-3.1517942177978746e-05   2.917248495186287e-06   -2.4015394805850413e-06
-2.3125313106531147e-05   2.1240205948880813e-07   -1.4766346738245779e-05
-2.3125313106531147e-05   2.1240205948880813e-07   -1.4766346738245779e-05
-2.3125313106531147e-05   2.1240205948880813e-07   -1.4766346738245779e-05
-2.3125313106531147e-05   2.1240205948880813e-07   -1.4766346738245779e-05
-3.151794217797872e-05   0.0   -3.145082094114926e-05
-3.151794217797872e-05   0.0   -3.145082094114926e-05
-3.151794217797872e-05   0.0   -3.145082094114926e-05
-3.151794217797872e-05   0.0   -3.145082094114926e-05
-1.408837330164017e-05   2.9172484951862804e-06   -6.511903834732697e-07
-1.408837330164017e-05   2.9172484951862804e-06   -6.511903834732697e-07
-1.408837330164017e-05   2.9172484951862804e-06   -6.511903834732697e-07
-1.408837330164017e-05   2.9172484951862804e-06   -6.511903834732697e-07
-1.376527229999005e-05   0.0   -3.0071449042221833e-05
-1.376527229999005e-05   0.0   -3.0071449042221833e-05
-1.376527229999005e-05   0.0   -3.0071449042221833e-05
-1.376527229999005e-05   0.0   -3.0071449042221833e-05
-3.15979123117802e-05   3.5779627218654534e-06   -2.4971599890242938e-06
-3.15979123117802e-05   3.5779627218654534e-06   -2.4971599890242938e-06
-3.15979123117802e-05   3.5779627218654534e-06   -2.4971599890242938e-06
-3.15979123117802e-05   3.5779627218654534e-06   -2.4971599890242938e-06
-2.2641607238984406e-05   1.149476582439503e-06   -1.5967243426695005e-05
-2.2641607238984406e-05   1.149476582439503e-06   -1.5967243426695005e-05
-2.2641607238984406e-05   1.149476582439503e-06   -1.5967243426695005e-05
-2.2641607238984406e-05   1.149476582439503e-06   -1.5967243426695005e-05
-3.15979123117802e-05   0.0   -3.221822667534116e-05
-3.15979123117802e-05   0.0   -3.221822667534116e-05
-3.15979123117802e-05   0.0   -3.221822667534116e-05
-3.15979123117802e-05   0.0   -3.221822667534116e-05
-1.3765272299990075e-05   3.5779627218654534e-06   -3.503823559050163e-07
-1.3765272299990075e-05   3.5779627218654534e-06   -3.503823559050163e-07
-1.3765272299990075e-05   3.5779627218654534e-06   -3.503823559050163e-07
-1.3765272299990075e-05   3.5779627218654534e-06   -3.503823559050163e-07
-1.34695906503329e-05   0.0   -2.9917530057068514e-05
-1.34695906503329e-05   0.0   -2.9917530057068514e-05
-1.34695906503329e-05   0.0   -2.9917530057068514e-05
-1.34695906503329e-05   0.0   -2.9917530057068514e-05
-3.157125288341868e-05   4.165492086384869e-06   -2.247388253756362e-06
-3.157125288341868e-05   4.165492086384869e-06   -2.247388253756362e-06
-3.157125288341868e-05   4.165492086384869e-06   -2.247388253756362e-06
-3.157125288341868e-05   4.165492086384869e-06   -2.247388253756362e-06
-2.2533751481056543e-05   1.9172471818938484e-06   -1.596094364833209e-05
-2.2533751481056543e-05   1.9172471818938484e-06   -1.596094364833209e-05
-2.2533751481056543e-05   1.9172471818938484e-06   -1.596094364833209e-05
-2.2533751481056543e-05   1.9172471818938484e-06   -1.596094364833209e-05
-1.4657174646693453e-05   0.0   -2.8728153517875966e-05
-1.4657174646693453e-05   0.0   -2.8728153517875966e-05
-1.4657174646693453e-05   0.0   -2.8728153517875966e-05
-1.4657174646693453e-05   0.0   -2.8728153517875966e-05
1.8742159409546021e-06   -2.6438502896974924e-07   -1.3344668891776941e-06
1.8742159409546021e-06   -2.6438502896974924e-07   -1.3344668891776941e-06
1.8742159409546021e-06   -2.6438502896974924e-07   -1.3344668891776941e-06
1.8742159409546021e-06   -2.6438502896974924e-07   -1.3344668891776941e-06
2.2414139848588784e-06   0.0   -2.9389541628511375e-05
2.2414139848588784e-06   0.0   -2.9389541628511375e-05
2.2414139848588784e-06   0.0   -2.9389541628511375e-05
2.2414139848588784e-06   0.0   -2.9389541628511375e-05
-1.408837330164017e-05   5.182170258767323e-07   -2.484159699872384e-06
-1.408837330164017e-05   5.182170258767323e-07   -2.484159699872384e-06
-1.408837330164017e-05   5.182170258767323e-07   -2.484159699872384e-06
-1.408837330164017e-05   5.182170258767323e-07   -2.484159699872384e-06
-6.207880330917272e-06   -5.511567588629283e-07   -1.4976690380233403e-05
-6.207880330917272e-06   -5.511567588629283e-07   -1.4976690380233403e-05
-6.207880330917272e-06   -5.511567588629283e-07   -1.4976690380233403e-05
-6.207880330917272e-06   -5.511567588629283e-07   -1.4976690380233403e-05
-1.4088373301640194e-05   0.0   -2.9700471844037522e-05
-1.4088373301640194e-05   0.0   -2.9700471844037522e-05
-1.4088373301640194e-05   0.0   -2.9700471844037522e-05
-1.4088373301640194e-05   0.0   -2.9700471844037522e-05
2.2414139848588827e-06   5.182170258767323e-07   -2.173229484346343e-06
2.2414139848588827e-06   5.182170258767323e-07   -2.173229484346343e-06
2.2414139848588827e-06   5.182170258767323e-07   -2.173229484346343e-06
2.2414139848588827e-06   5.182170258767323e-07   -2.173229484346343e-06
2.5324084289560408e-06   0.0   -2.934681076410455e-05
2.5324084289560408e-06   0.0   -2.934681076410455e-05
2.5324084289560408e-06   0.0   -2.934681076410455e-05
2.5324084289560408e-06   0.0   -2.934681076410455e-05
-1.3765272299990027e-05   1.2077304635287929e-06   -2.9086478273116822e-06
-1.3765272299990027e-05   1.2077304635287929e-06   -2.9086478273116822e-06
-1.3765272299990027e-05   1.2077304635287929e-06   -2.9086478273116822e-06
-1.3765272299990027e-05   1.2077304635287929e-06   -2.9086478273116822e-06
-5.777982436342065e-06   2.9471756661076273e-07   -1.567298986190749e-05
-5.777982436342065e-06   2.9471756661076273e-07   -1.567298986190749e-05
-5.777982436342065e-06   2.9471756661076273e-07   -1.567298986190749e-05
-5.777982436342065e-06   2.9471756661076273e-07   -1.567298986190749e-05
-1.3765272299990075e-05   0.0   -3.0071449042221884e-05
-1.3765272299990075e-05   0.0   -3.0071449042221884e-05
-1.3765272299990075e-05   0.0   -3.0071449042221884e-05
-1.3765272299990075e-05   0.0   -3.0071449042221884e-05
2.5324084289560454e-06   1.2077304635288064e-06   -2.184009549194409e-06
2.5324084289560454e-06   1.2077304635288064e-06   -2.184009549194409e-06
2.5324084289560454e-06   1.2077304635288064e-06   -2.184009549194409e-06
2.5324084289560454e-06   1.2077304635288064e-06   -2.184009549194409e-06
2.9209831097378217e-06   0.0   -2.8714030474046585e-05
2.9209831097378217e-06   0.0   -2.8714030474046585e-05
2.9209831097378217e-06   0.0   -2.8714030474046585e-05
2.9209831097378217e-06   0.0   -2.8714030474046585e-05
-1.346959065033289e-05   2.005832638369838e-06   -2.5999071236173074e-06
-1.346959065033289e-05   2.005832638369838e-06   -2.5999071236173074e-06
-1.346959065033289e-05   2.005832638369838e-06   -2.5999071236173074e-06
-1.346959065033289e-05   2.005832638369838e-06   -2.5999071236173074e-06
-5.422144595126115e-06   1.1311821401460406e-06   -1.5487526916694304e-05
-5.422144595126115e-06   1.1311821401460406e-06   -1.5487526916694304e-05
-5.422144595126115e-06   1.1311821401460406e-06   -1.5487526916694304e-05
-5.422144595126115e-06   1.1311821401460406e-06   -1.5487526916694304e-05
1.8742159409546055e-06   0.0   -2.8886784535257814e-05
1.8742159409546055e-06   0.0   -2.8886784535257814e-05
1.8742159409546055e-06   0.0   -2.8886784535257814e-05
1.8742159409546055e-06   0.0   -2.8886784535257814e-05
1.982637583732677e-05   -2.3254783560621e-06   -3.618050549413361e-07
1.982637583732677e-05   -2.3254783560621e-06   -3.618050549413361e-07
1.982637583732677e-05   -2.3254783560621e-06   -3.618050549413361e-07
1.982637583732677e-05   -2.3254783560621e-06   -3.618050549413361e-07
1.987252772158897e-05   0.0   -3.043989549149874e-05
1.987252772158897e-05   0.0   -3.043989549149874e-05
1.987252772158897e-05   0.0   -3.043989549149874e-05
1.987252772158897e-05   0.0   -3.043989549149874e-05
2.2414139848588827e-06   -1.750589771645429e-06   -4.3520672946744936e-09
2.2414139848588827e-06   -1.750589771645429e-06   -4.3520672946744936e-09
2.2414139848588827e-06   -1.750589771645429e-06   -4.3520672946744936e-09
2.2414139848588827e-06   -1.750589771645429e-06   -4.3520672946744936e-09
1.0873371831271787e-05   -1.2942591302007716e-06   -1.466474686284963e-05
1.0873371831271787e-05   -1.2942591302007716e-06   -1.466474686284963e-05
1.0873371831271787e-05   -1.2942591302007716e-06   -1.466474686284963e-05
1.0873371831271787e-05   -1.2942591302007716e-06   -1.466474686284963e-05
2.2414139848588865e-06   0.0   -2.938954162851148e-05
2.2414139848588865e-06   0.0   -2.938954162851148e-05
2.2414139848588865e-06   0.0   -2.938954162851148e-05
2.2414139848588865e-06   0.0   -2.938954162851148e-05
1.9872527721588937e-05   -1.750589771645429e-06   -1.0547059302819361e-06
1.9872527721588937e-05   -1.750589771645429e-06   -1.0547059302819361e-06
1.9872527721588937e-05   -1.750589771645429e-06   -1.0547059302819361e-06
1.9872527721588937e-05   -1.750589771645429e-06   -1.0547059302819361e-06
1.9796807612471932e-05   0.0   -3.0005303346386365e-05
1.9796807612471932e-05   0.0   -3.0005303346386365e-05
1.9796807612471932e-05   0.0   -3.0005303346386365e-05
1.9796807612471932e-05   0.0   -3.0005303346386365e-05
2.5324084289560454e-06   -1.0974876371362707e-06   -5.72812124911461e-07
2.5324084289560454e-06   -1.0974876371362707e-06   -5.72812124911461e-07
2.5324084289560454e-06   -1.0974876371362707e-06   -5.72812124911461e-07
2.5324084289560454e-06   -1.0974876371362707e-06   -5.72812124911461e-07
1.101911079866541e-05   -5.131347648957387e-07   -1.5067927797771374e-05
1.101911079866541e-05   -5.131347648957387e-07   -1.5067927797771374e-05
1.101911079866541e-05   -5.131347648957387e-07   -1.5067927797771374e-05
1.101911079866541e-05   -5.131347648957387e-07   -1.5067927797771374e-05
2.5324084289560454e-06   0.0   -2.9346810764104606e-05
2.5324084289560454e-06   0.0   -2.9346810764104606e-05
2.5324084289560454e-06   0.0   -2.9346810764104606e-05
2.5324084289560454e-06   0.0   -2.9346810764104606e-05
1.9796807612471898e-05   -1.0974876371362707e-06   -1.2313047071932224e-06
1.9796807612471898e-05   -1.0974876371362707e-06   -1.2313047071932224e-06
1.9796807612471898e-05   -1.0974876371362707e-06   -1.2313047071932224e-06
1.9796807612471898e-05   -1.0974876371362707e-06   -1.2313047071932224e-06
2.0189235753833504e-05   0.0   -2.8846292355598133e-05
2.0189235753833504e-05   0.0   -2.8846292355598133e-05
2.0189235753833504e-05   0.0   -2.8846292355598133e-05
2.0189235753833504e-05   0.0   -2.8846292355598133e-05
2.9209831097378268e-06   -2.2043646925249934e-07   6.639059944615619e-08
2.9209831097378268e-06   -2.2043646925249934e-07   6.639059944615619e-08
2.9209831097378268e-06   -2.2043646925249934e-07   6.639059944615619e-08
2.9209831097378268e-06   -2.2043646925249934e-07   6.639059944615619e-08
1.1360822091394775e-05   4.1709867375539113e-07   -1.4382528789120142e-05
1.1360822091394775e-05   4.1709867375539113e-07   -1.4382528789120142e-05
1.1360822091394775e-05   4.1709867375539113e-07   -1.4382528789120142e-05
1.1360822091394775e-05   4.1709867375539113e-07   -1.4382528789120142e-05
1.9826375837326836e-05   0.0   -3.0282071548895077e-05
1.9826375837326836e-05   0.0   -3.0282071548895077e-05
1.9826375837326836e-05   0.0   -3.0282071548895077e-05
1.9826375837326836e-05   0.0   -3.0282071548895077e-05
4.4818492616071575e-05   -5.902407897992366e-06   7.830011676884216e-06
4.4818492616071575e-05   -5.902407897992366e-06   7.830011676884216e-06
4.4818492616071575e-05   -5.902407897992366e-06   7.830011676884216e-06
4.4818492616071575e-05   -5.902407897992366e-06   7.830011676884216e-06
4.210595204936367e-05   0.0   -3.3449648038128304e-05
4.210595204936367e-05   0.0   -3.3449648038128304e-05
4.210595204936367e-05   0.0   -3.3449648038128304e-05
4.210595204936367e-05   0.0   -3.3449648038128304e-05
1.9872527721588937e-05   -5.016254244382601e-06   6.615811721459082e-06
1.9872527721588937e-05   -5.016254244382601e-06   6.615811721459082e-06
1.9872527721588937e-05   -5.016254244382601e-06   6.615811721459082e-06
1.9872527721588937e-05   -5.016254244382601e-06   6.615811721459082e-06
3.0966163943345256e-05   -2.6396470743610287e-06   -1.3299546283480981e-05
3.0966163943345256e-05   -2.6396470743610287e-06   -1.3299546283480981e-05
3.0966163943345256e-05   -2.6396470743610287e-06   -1.3299546283480981e-05
3.0966163943345256e-05   -2.6396470743610287e-06   -1.3299546283480981e-05
1.9872527721588954e-05   0.0   -3.0439895491498714e-05
1.9872527721588954e-05   0.0   -3.0439895491498714e-05
1.9872527721588954e-05   0.0   -3.0439895491498714e-05
1.9872527721588954e-05   0.0   -3.0439895491498714e-05
4.210595204936367e-05   -5.0162542443826075e-06   3.606059174829525e-06
4.210595204936367e-05   -5.0162542443826075e-06   3.606059174829525e-06
4.210595204936367e-05   -5.0162542443826075e-06   3.606059174829525e-06
4.210595204936367e-05   -5.0162542443826075e-06   3.606059174829525e-06
4.085933297451609e-05   0.0   -3.275431449443473e-05
4.085933297451609e-05   0.0   -3.275431449443473e-05
4.085933297451609e-05   0.0   -3.275431449443473e-05
4.085933297451609e-05   0.0   -3.275431449443473e-05
1.9796807612471898e-05   -4.581685246747267e-06   5.09890559035389e-06
1.9796807612471898e-05   -4.581685246747267e-06   5.09890559035389e-06
1.9796807612471898e-05   -4.581685246747267e-06   5.09890559035389e-06
1.9796807612471898e-05   -4.581685246747267e-06   5.09890559035389e-06
3.036593034805251e-05   -1.928682502446661e-06   -1.4108100615527446e-05
3.036593034805251e-05   -1.928682502446661e-06   -1.4108100615527446e-05
3.036593034805251e-05   -1.928682502446661e-06   -1.4108100615527446e-05
3.036593034805251e-05   -1.928682502446661e-06   -1.4108100615527446e-05
1.9796807612471932e-05   0.0   -3.0005303346386365e-05
1.9796807612471932e-05   0.0   -3.0005303346386365e-05
1.9796807612471932e-05   0.0   -3.0005303346386365e-05
1.9796807612471932e-05   0.0   -3.0005303346386365e-05
4.085933297451602e-05   -4.581685246747267e-06   2.3498944423055274e-06
4.085933297451602e-05   -4.581685246747267e-06   2.3498944423055274e-06
4.085933297451602e-05   -4.581685246747267e-06   2.3498944423055274e-06
4.085933297451602e-05   -4.581685246747267e-06   2.3498944423055274e-06
3.899690401126673e-05   0.0   -3.097883096028168e-05
3.899690401126673e-05   0.0   -3.097883096028168e-05
3.899690401126673e-05   0.0   -3.097883096028168e-05
3.899690401126673e-05   0.0   -3.097883096028168e-05
2.018923575383345e-05   -3.554231007805902e-06   2.499821406790592e-06
2.018923575383345e-05   -3.554231007805902e-06   2.499821406790592e-06
2.018923575383345e-05   -3.554231007805902e-06   2.499821406790592e-06
2.018923575383345e-05   -3.554231007805902e-06   2.499821406790592e-06
2.939685581186928e-05   -8.112730115794245e-07   -1.4491986821004988e-05
2.939685581186928e-05   -8.112730115794245e-07   -1.4491986821004988e-05
2.939685581186928e-05   -8.112730115794245e-07   -1.4491986821004988e-05
2.939685581186928e-05   -8.112730115794245e-07   -1.4491986821004988e-05
-4.378051475921768e-05   5.585260096377702e-06   -2.880669767062047e-05
-4.378051475921768e-05   5.585260096377702e-06   -2.880669767062047e-05