<?xml version="1.0"?> 
<VTKFile type="UnstructuredGrid"> 
   <UnstructuredGrid> 
      <Piece NumberOfPoints="6000"  NumberOfCells="1500">  
          <Points>  
             <DataArray type="Float64" NumberOfComponents="3" format="ascii">   
-500.0   0.0   0.0
-450.0   0.0   0.0
-500.0   30.0   0.0
-500.0   0.0   16.666666666666668
-450.0   0.0   0.0
-450.0   30.0   0.0
-500.0   30.0   0.0
-450.0   30.0   16.666666666666668
-500.0   0.0   16.666666666666668
-500.0   30.0   16.666666666666668
-450.0   30.0   16.666666666666668
-500.0   30.0   0.0
-500.0   0.0   16.666666666666668
-450.0   30.0   16.666666666666668
-450.0   0.0   16.666666666666668
-450.0   0.0   0.0
-500.0   0.0   16.666666666666668
-450.0   30.0   16.666666666666668
-450.0   0.0   0.0
-500.0   30.0   0.0
-500.0   0.0   16.666666666666668
-450.0   0.0   16.666666666666668
-500.0   30.0   16.666666666666668
-500.0   0.0   33.333333333333336
-450.0   0.0   16.666666666666668
-450.0   30.0   16.666666666666668
-500.0   30.0   16.666666666666668
-450.0   30.0   33.333333333333336
-500.0   0.0   33.333333333333336
-500.0   30.0   33.333333333333336
-450.0   30.0   33.333333333333336
-500.0   30.0   16.666666666666668
-500.0   0.0   33.333333333333336
-450.0   30.0   33.333333333333336
-450.0   0.0   33.333333333333336
-450.0   0.0   16.666666666666668
-500.0   0.0   33.333333333333336
-450.0   30.0   33.333333333333336
-450.0   0.0   16.666666666666668
-500.0   30.0   16.666666666666668
-500.0   0.0   33.333333333333336
-450.0   0.0   33.333333333333336
-500.0   30.0   33.333333333333336
-500.0   0.0   50.0
-450.0   0.0   33.333333333333336
-450.0   30.0   33.333333333333336
-500.0   30.0   33.333333333333336
-450.0   30.0   50.0
-500.0   0.0   50.0
-500.0   30.0   50.0
-450.0   30.0   50.0
-500.0   30.0   33.333333333333336
-500.0   0.0   50.0
-450.0   30.0   50.0
-450.0   0.0   50.0
-450.0   0.0   33.333333333333336
-500.0   0.0   50.0
-450.0   30.0   50.0
-450.0   0.0   33.333333333333336
-500.0   30.0   33.333333333333336
-500.0   30.0   0.0
-450.0   30.0   0.0
-500.0   60.0   0.0
-500.0   30.0   16.666666666666668
-450.0   30.0   0.0
-450.0   60.0   0.0
-500.0   60.0   0.0
-450.0   60.0   16.666666666666668
-500.0   30.0   16.666666666666668
-500.0   60.0   16.666666666666668
-450.0   60.0   16.666666666666668
-500.0   60.0   0.0
-500.0   30.0   16.666666666666668
-450.0   60.0   16.666666666666668
-450.0   30.0   16.666666666666668
-450.0   30.0   0.0
-500.0   30.0   16.666666666666668
-450.0   60.0   16.666666666666668
-450.0   30.0   0.0
-500.0   60.0   0.0
-500.0   30.0   16.666666666666668
-450.0   30.0   16.666666666666668
-500.0   60.0   16.666666666666668
-500.0   30.0   33.333333333333336
-450.0   30.0   16.666666666666668
-450.0   60.0   16.666666666666668
-500.0   60.0   16.666666666666668
-450.0   60.0   33.333333333333336
-500.0   30.0   33.333333333333336
-500.0   60.0   33.333333333333336
-450.0   60.0   33.333333333333336
-500.0   60.0   16.666666666666668
-500.0   30.0   33.333333333333336
-450.0   60.0   33.333333333333336
-450.0   30.0   33.333333333333336
-450.0   30.0   16.666666666666668
-500.0   30.0   33.333333333333336
-450.0   60.0   33.333333333333336
-450.0   30.0   16.666666666666668
-500.0   60.0   16.666666666666668
-500.0   30.0   33.333333333333336
-450.0   30.0   33.333333333333336
-500.0   60.0   33.333333333333336
-500.0   30.0   50.0
-450.0   30.0   33.333333333333336
-450.0   60.0   33.333333333333336
-500.0   60.0   33.333333333333336
-450.0   60.0   50.0
-500.0   30.0   50.0
-500.0   60.0   50.0
-450.0   60.0   50.0
-500.0   60.0   33.333333333333336
-500.0   30.0   50.0
-450.0   60.0   50.0
-450.0   30.0   50.0
-450.0   30.0   33.333333333333336
-500.0   30.0   50.0
-450.0   60.0   50.0
-450.0   30.0   33.333333333333336
-500.0   60.0   33.333333333333336
-500.0   60.0   0.0
-450.0   60.0   0.0
-500.0   90.0   0.0
-500.0   60.0   16.666666666666668
-450.0   60.0   0.0
-450.0   90.0   0.0
-500.0   90.0   0.0
-450.0   90.0   16.666666666666668
-500.0   60.0   16.666666666666668
-500.0   90.0   16.666666666666668
-450.0   90.0   16.666666666666668
-500.0   90.0   0.0
-500.0   60.0   16.666666666666668
-450.0   90.0   16.666666666666668
-450.0   60.0   16.666666666666668
-450.0   60.0   0.0
-500.0   60.0   16.666666666666668
-450.0   90.0   16.666666666666668
-450.0   60.0   0.0
-500.0   90.0   0.0
-500.0   60.0   16.666666666666668
-450.0   60.0   16.666666666666668
-500.0   90.0   16.666666666666668
-500.0   60.0   33.333333333333336
-450.0   60.0   16.666666666666668
-450.0   90.0   16.666666666666668
-500.0   90.0   16.666666666666668
-450.0   90.0   33.333333333333336
-500.0   60.0   33.333333333333336
-500.0   90.0   33.333333333333336
-450.0   90.0   33.333333333333336
-500.0   90.0   16.666666666666668
-500.0   60.0   33.333333333333336
-450.0   90.0   33.333333333333336
-450.0   60.0   33.333333333333336
-450.0   60.0   16.666666666666668
-500.0   60.0   33.333333333333336
-450.0   90.0   33.333333333333336
-450.0   60.0   16.666666666666668
-500.0   90.0   16.666666666666668
-500.0   60.0   33.333333333333336
-450.0   60.0   33.333333333333336
-500.0   90.0   33.333333333333336
-500.0   60.0   50.0
-450.0   60.0   33.333333333333336
-450.0   90.0   33.333333333333336
-500.0   90.0   33.333333333333336
-450.0   90.0   50.0
-500.0   60.0   50.0
-500.0   90.0   50.0
-450.0   90.0   50.0
-500.0   90.0   33.333333333333336
-500.0   60.0   50.0
-450.0   90.0   50.0
-450.0   60.0   50.0
-450.0   60.0   33.333333333333336
-500.0   60.0   50.0
-450.0   90.0   50.0
-450.0   60.0   33.333333333333336
-500.0   90.0   33.333333333333336
-500.0   90.0   0.0
-450.0   90.0   0.0
-500.0   120.0   0.0
-500.0   90.0   16.666666666666668
-450.0   90.0   0.0
-450.0   120.0   0.0
-500.0   120.0   0.0
-450.0   120.0   16.666666666666668
-500.0   90.0   16.666666666666668
-500.0   120.0   16.666666666666668
-450.0   120.0   16.666666666666668
-500.0   120.0   0.0
-500.0   90.0   16.666666666666668
-450.0   120.0   16.666666666666668
-450.0   90.0   16.666666666666668
-450.0   90.0   0.0
-500.0   90.0   16.666666666666668
-450.0   120.0   16.666666666666668
-450.0   90.0   0.0
-500.0   120.0   0.0
-500.0   90.0   16.666666666666668
-450.0   90.0   16.666666666666668
-500.0   120.0   16.666666666666668
-500.0   90.0   33.333333333333336
-450.0   90.0   16.666666666666668
-450.0   120.0   16.666666666666668
-500.0   120.0   16.666666666666668
-450.0   120.0   33.333333333333336
-500.0   90.0   33.333333333333336
-500.0   120.0   33.333333333333336
-450.0   120.0   33.333333333333336
-500.0   120.0   16.666666666666668
-500.0   90.0   33.333333333333336
-450.0   120.0   33.333333333333336
-450.0   90.0   33.333333333333336
-450.0   90.0   16.666666666666668
-500.0   90.0   33.333333333333336
-450.0   120.0   33.333333333333336
-450.0   90.0   16.666666666666668
-500.0   120.0   16.666666666666668
-500.0   90.0   33.333333333333336
-450.0   90.0   33.333333333333336
-500.0   120.0   33.333333333333336
-500.0   90.0   50.0
-450.0   90.0   33.333333333333336
-450.0   120.0   33.333333333333336
-500.0   120.0   33.333333333333336
-450.0   120.0   50.0
-500.0   90.0   50.0
-500.0   120.0   50.0
-450.0   120.0   50.0
-500.0   120.0   33.333333333333336
-500.0   90.0   50.0
-450.0   120.0   50.0
-450.0   90.0   50.0
-450.0   90.0   33.333333333333336
-500.0   90.0   50.0
-450.0   120.0   50.0
-450.0   90.0   33.333333333333336
-500.0   120.0   33.333333333333336
-500.0   120.0   0.0
-450.0   120.0   0.0
-500.0   150.0   0.0
-500.0   120.0   16.666666666666668
-450.0   120.0   0.0
-450.0   150.0   0.0
-500.0   150.0   0.0
-450.0   150.0   16.666666666666668
-500.0   120.0   16.666666666666668
-500.0   150.0   16.666666666666668
-450.0   150.0   16.666666666666668
-500.0   150.0   0.0
-500.0   120.0   16.666666666666668
-450.0   150.0   16.666666666666668
-450.0   120.0   16.666666666666668
-450.0   120.0   0.0
-500.0   120.0   16.666666666666668
-450.0   150.0   16.666666666666668
-450.0   120.0   0.0
-500.0   150.0   0.0
-500.0   120.0   16.666666666666668
-450.0   120.0   16.666666666666668
-500.0   150.0   16.666666666666668
-500.0   120.0   33.333333333333336
-450.0   120.0   16.666666666666668
-450.0   150.0   16.666666666666668
-500.0   150.0   16.666666666666668
-450.0   150.0   33.333333333333336
-500.0   120.0   33.333333333333336
-500.0   150.0   33.333333333333336
-450.0   150.0   33.333333333333336
-500.0   150.0   16.666666666666668
-500.0   120.0   33.333333333333336
-450.0   150.0   33.333333333333336
-450.0   120.0   33.333333333333336
-450.0   120.0   16.666666666666668
-500.0   120.0   33.333333333333336
-450.0   150.0   33.333333333333336
-450.0   120.0   16.666666666666668
-500.0   150.0   16.666666666666668
-500.0   120.0   33.333333333333336
-450.0   120.0   33.333333333333336
-500.0   150.0   33.333333333333336
-500.0   120.0   50.0
-450.0   120.0   33.333333333333336
-450.0   150.0   33.333333333333336
-500.0   150.0   33.333333333333336
-450.0   150.0   50.0
-500.0   120.0   50.0
-500.0   150.0   50.0
-450.0   150.0   50.0
-500.0   150.0   33.333333333333336
-500.0   120.0   50.0
-450.0   150.0   50.0
-450.0   120.0   50.0
-450.0   120.0   33.333333333333336
-500.0   120.0   50.0
-450.0   150.0   50.0
-450.0   120.0   33.333333333333336
-500.0   150.0   33.333333333333336
-450.0   0.0   0.0
-400.0   0.0   0.0
-450.0   30.0   0.0
-450.0   0.0   16.666666666666668
-400.0   0.0   0.0
-400.0   30.0   0.0
-450.0   30.0   0.0
-400.0   30.0   16.666666666666668
-450.0   0.0   16.666666666666668
-450.0   30.0   16.666666666666668
-400.0   30.0   16.666666666666668
-450.0   30.0   0.0
-450.0   0.0   16.666666666666668
-400.0   30.0   16.666666666666668
-400.0   0.0   16.666666666666668
-400.0   0.0   0.0
-450.0   0.0   16.666666666666668
-400.0   30.0   16.666666666666668
-400.0   0.0   0.0
-450.0   30.0   0.0
-450.0   0.0   16.666666666666668
-400.0   0.0   16.666666666666668
-450.0   30.0   16.666666666666668
[...]
          <PointData>  
             <DataArray type="Float64" NumberOfComponents="3" Name="Strains" format="ascii">   
-0.00010063189759968291   0.0   -6.602799002685991e-05
-0.00010063189759968291   0.0   -6.602799002685991e-05
-0.00010063189759968291   0.0   -6.602799002685991e-05
-0.00010063189759968291   0.0   -6.602799002685991e-05
-6.40356981843311e-05   1.1150327294092802e-05   1.655872041848668e-06
-6.40356981843311e-05   1.1150327294092802e-05   1.655872041848668e-06
-6.40356981843311e-05   1.1150327294092802e-05   1.655872041848668e-06
-6.40356981843311e-05   1.1150327294092802e-05   1.655872041848668e-06
-6.27706196754913e-05   0.0   -6.231517048247846e-05
-6.27706196754913e-05   0.0   -6.231517048247846e-05
-6.27706196754913e-05   0.0   -6.231517048247846e-05
-6.27706196754913e-05   0.0   -6.231517048247846e-05
-0.00010531770089546815   1.3379890609271032e-05   5.686971852539985e-07
-0.00010531770089546815   1.3379890609271032e-05   5.686971852539985e-07
-0.00010531770089546815   1.3379890609271032e-05   5.686971852539985e-07
-0.00010531770089546815   1.3379890609271032e-05   5.686971852539985e-07
-8.170125863758696e-05   3.094016286984539e-06   -3.2620515317842755e-05
-8.170125863758696e-05   3.094016286984539e-06   -3.2620515317842755e-05
-8.170125863758696e-05   3.094016286984539e-06   -3.2620515317842755e-05
-8.170125863758696e-05   3.094016286984539e-06   -3.2620515317842755e-05
-0.00010531770089546834   0.0   -7.03431048480411e-05
-0.00010531770089546834   0.0   -7.03431048480411e-05
-0.00010531770089546834   0.0   -7.03431048480411e-05
-0.00010531770089546834   0.0   -7.03431048480411e-05
-6.27706196754913e-05   1.3379890609271046e-05   8.596631550816618e-06
-6.27706196754913e-05   1.3379890609271046e-05   8.596631550816618e-06
-6.27706196754913e-05   1.3379890609271046e-05   8.596631550816618e-06
-6.27706196754913e-05   1.3379890609271046e-05   8.596631550816618e-06
-6.294909331254723e-05   0.0   -6.384081701998484e-05
-6.294909331254723e-05   0.0   -6.384081701998484e-05
-6.294909331254723e-05   0.0   -6.384081701998484e-05
-6.294909331254723e-05   0.0   -6.384081701998484e-05
-0.00010860916001977863   1.4334244199164188e-05   3.658747639235919e-06
-0.00010860916001977863   1.4334244199164188e-05   3.658747639235919e-06
-0.00010860916001977863   1.4334244199164188e-05   3.658747639235919e-06
-0.00010860916001977863   1.4334244199164188e-05   3.658747639235919e-06
-8.413339710400764e-05   5.41857319004688e-06   -3.1784787948245306e-05
-8.413339710400764e-05   5.41857319004688e-06   -3.1784787948245306e-05
-8.413339710400764e-05   5.41857319004688e-06   -3.1784787948245306e-05
-8.413339710400764e-05   5.41857319004688e-06   -3.1784787948245306e-05
-0.00010860916001977882   0.0   -7.244136353948337e-05
-0.00010860916001977882   0.0   -7.244136353948337e-05
-0.00010860916001977882   0.0   -7.244136353948337e-05
-0.00010860916001977882   0.0   -7.244136353948337e-05
-6.294909331254713e-05   1.4334244199164188e-05   1.2259294158734432e-05
-6.294909331254713e-05   1.4334244199164188e-05   1.2259294158734432e-05
-6.294909331254713e-05   1.4334244199164188e-05   1.2259294158734432e-05
-6.294909331254713e-05   1.4334244199164188e-05   1.2259294158734432e-05
-6.291763973707518e-05   0.0   -6.423261878089157e-05
-6.291763973707518e-05   0.0   -6.423261878089157e-05
-6.291763973707518e-05   0.0   -6.423261878089157e-05
-6.291763973707518e-05   0.0   -6.423261878089157e-05
-0.00011569843139316516   1.6328730152992508e-05   1.3938129220796513e-05
-0.00011569843139316516   1.6328730152992508e-05   1.3938129220796513e-05
-0.00011569843139316516   1.6328730152992508e-05   1.3938129220796513e-05
-0.00011569843139316516   1.6328730152992508e-05   1.3938129220796513e-05
-8.576339987842685e-05   6.840620632159816e-06   -3.026072425793438e-05
-8.576339987842685e-05   6.840620632159816e-06   -3.026072425793438e-05
-8.576339987842685e-05   6.840620632159816e-06   -3.026072425793438e-05
-8.576339987842685e-05   6.840620632159816e-06   -3.026072425793438e-05
-6.403569818433121e-05   0.0   -5.9337793650404224e-05
-6.403569818433121e-05   0.0   -5.9337793650404224e-05
-6.403569818433121e-05   0.0   -5.9337793650404224e-05
-6.403569818433121e-05   0.0   -5.9337793650404224e-05
-2.9160527126996026e-05   4.0899343375233875e-06   1.2414520476684124e-06
-2.9160527126996026e-05   4.0899343375233875e-06   1.2414520476684124e-06
-2.9160527126996026e-05   4.0899343375233875e-06   1.2414520476684124e-06
-2.9160527126996026e-05   4.0899343375233875e-06   1.2414520476684124e-06
-2.8047595072742087e-05   0.0   -5.882193404067626e-05
-2.8047595072742087e-05   0.0   -5.882193404067626e-05
-2.8047595072742087e-05   0.0   -5.882193404067626e-05
-2.8047595072742087e-05   0.0   -5.882193404067626e-05
-6.27706196754913e-05   5.822060736336831e-06   -4.44346281122989e-06
-6.27706196754913e-05   5.822060736336831e-06   -4.44346281122989e-06
-6.27706196754913e-05   5.822060736336831e-06   -4.44346281122989e-06
-6.27706196754913e-05   5.822060736336831e-06   -4.44346281122989e-06
-4.604164662853659e-05   4.298830081065467e-07   -2.9089777919215998e-05
-4.604164662853659e-05   4.298830081065467e-07   -2.9089777919215998e-05
-4.604164662853659e-05   4.298830081065467e-07   -2.9089777919215998e-05
-4.604164662853659e-05   4.298830081065467e-07   -2.9089777919215998e-05
-6.277061967549124e-05   0.0   -6.231517048247841e-05
-6.277061967549124e-05   0.0   -6.231517048247841e-05
-6.277061967549124e-05   0.0   -6.231517048247841e-05
-6.277061967549124e-05   0.0   -6.231517048247841e-05
-2.8047595072742087e-05   5.822060736336817e-06   -9.50226369427783e-07
-2.8047595072742087e-05   5.822060736336817e-06   -9.50226369427783e-07
-2.8047595072742087e-05   5.822060736336817e-06   -9.50226369427783e-07
-2.8047595072742087e-05   5.822060736336817e-06   -9.50226369427783e-07
-2.742313063519477e-05   0.0   -5.9560607740321236e-05
-2.742313063519477e-05   0.0   -5.9560607740321236e-05
-2.742313063519477e-05   0.0   -5.9560607740321236e-05
-2.742313063519477e-05   0.0   -5.9560607740321236e-05
-6.294909331254723e-05   7.133682132772496e-06   -4.630879224397499e-06
-6.294909331254723e-05   7.133682132772496e-06   -4.630879224397499e-06
-6.294909331254723e-05   7.133682132772496e-06   -4.630879224397499e-06
-6.294909331254723e-05   7.133682132772496e-06   -4.630879224397499e-06
-4.509687515534305e-05   2.295468951797605e-06   -3.148164824448613e-05
-4.509687515534305e-05   2.295468951797605e-06   -3.148164824448613e-05
-4.509687515534305e-05   2.295468951797605e-06   -3.148164824448613e-05
-4.509687515534305e-05   2.295468951797605e-06   -3.148164824448613e-05
-6.294909331254723e-05   0.0   -6.384081701998484e-05
-6.294909331254723e-05   0.0   -6.384081701998484e-05
-6.294909331254723e-05   0.0   -6.384081701998484e-05
-6.294909331254723e-05   0.0   -6.384081701998484e-05
-2.742313063519482e-05   7.133682132772496e-06   -3.506699447340016e-07
-2.742313063519482e-05   7.133682132772496e-06   -3.506699447340016e-07
-2.742313063519482e-05   7.133682132772496e-06   -3.506699447340016e-07
-2.742313063519482e-05   7.133682132772496e-06   -3.506699447340016e-07
-2.685474628138628e-05   0.0   -5.9252302013963766e-05
-2.685474628138628e-05   0.0   -5.9252302013963766e-05
-2.685474628138628e-05   0.0   -5.9252302013963766e-05
-2.685474628138628e-05   0.0   -5.9252302013963766e-05
-6.291763973707502e-05   8.300527944879571e-06   -4.127796354743375e-06
-6.291763973707502e-05   8.300527944879571e-06   -4.127796354743375e-06
-6.291763973707502e-05   8.300527944879571e-06   -4.127796354743375e-06
-6.291763973707502e-05   8.300527944879571e-06   -4.127796354743375e-06
-4.4901919796966744e-05   3.8237625050175145e-06   -3.1467936991006846e-05
-4.4901919796966744e-05   3.8237625050175145e-06   -3.1467936991006846e-05
-4.4901919796966744e-05   3.8237625050175145e-06   -3.1467936991006846e-05
-4.4901919796966744e-05   3.8237625050175145e-06   -3.1467936991006846e-05
-2.9160527126996077e-05   0.0   -5.688383304789019e-05
-2.9160527126996077e-05   0.0   -5.688383304789019e-05
-2.9160527126996077e-05   0.0   -5.688383304789019e-05
-2.9160527126996077e-05   0.0   -5.688383304789019e-05
3.79119671361041e-06   -5.236549873281635e-07   -2.2784863059428917e-06
3.79119671361041e-06   -5.236549873281635e-07   -2.2784863059428917e-06
3.79119671361041e-06   -5.236549873281635e-07   -2.2784863059428917e-06
3.79119671361041e-06   -5.236549873281635e-07   -2.2784863059428917e-06
4.500907538902717e-06   0.0   -5.820271880977837e-05
4.500907538902717e-06   0.0   -5.820271880977837e-05
4.500907538902717e-06   0.0   -5.820271880977837e-05
4.500907538902717e-06   0.0   -5.820271880977837e-05
-2.8047595072742087e-05   1.0320253848296546e-06   -4.574429687934919e-06
-2.8047595072742087e-05   1.0320253848296546e-06   -4.574429687934919e-06
-2.8047595072742087e-05   1.0320253848296546e-06   -4.574429687934919e-06
-2.8047595072742087e-05   1.0320253848296546e-06   -4.574429687934919e-06
-1.232980979404665e-05   -1.0990714682403198e-06   -2.9492080373918636e-05
-1.232980979404665e-05   -1.0990714682403198e-06   -2.9492080373918636e-05
-1.232980979404665e-05   -1.0990714682403198e-06   -2.9492080373918636e-05
-1.232980979404665e-05   -1.0990714682403198e-06   -2.9492080373918636e-05
-2.8047595072742134e-05   0.0   -5.8821934040676365e-05
-2.8047595072742134e-05   0.0   -5.8821934040676365e-05
-2.8047595072742134e-05   0.0   -5.8821934040676365e-05
-2.8047595072742134e-05   0.0   -5.8821934040676365e-05
4.500907538902725e-06   1.0320253848296546e-06   -3.955214457037123e-06
4.500907538902725e-06   1.0320253848296546e-06   -3.955214457037123e-06
4.500907538902725e-06   1.0320253848296546e-06   -3.955214457037123e-06
4.500907538902725e-06   1.0320253848296546e-06   -3.955214457037123e-06
5.060864738227889e-06   0.0   -5.8119562344592316e-05
5.060864738227889e-06   0.0   -5.8119562344592316e-05
5.060864738227889e-06   0.0   -5.8119562344592316e-05
5.060864738227889e-06   0.0   -5.8119562344592316e-05
-2.7423130635194724e-05   2.4017423262148675e-06   -5.420615451283475e-06
-2.7423130635194724e-05   2.4017423262148675e-06   -5.420615451283475e-06
-2.7423130635194724e-05   2.4017423262148675e-06   -5.420615451283475e-06
-2.7423130635194724e-05   2.4017423262148675e-06   -5.420615451283475e-06
-1.14933651672571e-05   5.853097467366304e-07   -3.088036501682596e-05
-1.14933651672571e-05   5.853097467366304e-07   -3.088036501682596e-05
-1.14933651672571e-05   5.853097467366304e-07   -3.088036501682596e-05
-1.14933651672571e-05   5.853097467366304e-07   -3.088036501682596e-05
-2.742313063519482e-05   0.0   -5.9560607740321344e-05
-2.742313063519482e-05   0.0   -5.9560607740321344e-05
-2.742313063519482e-05   0.0   -5.9560607740321344e-05
-2.742313063519482e-05   0.0   -5.9560607740321344e-05
5.0608647382278975e-06   2.401742326214881e-06   -3.979570055554563e-06
5.0608647382278975e-06   2.401742326214881e-06   -3.979570055554563e-06
5.0608647382278975e-06   2.401742326214881e-06   -3.979570055554563e-06
5.0608647382278975e-06   2.401742326214881e-06   -3.979570055554563e-06
5.814770956455694e-06   0.0   -5.685931613003166e-05
5.814770956455694e-06   0.0   -5.685931613003166e-05
5.814770956455694e-06   0.0   -5.685931613003166e-05
5.814770956455694e-06   0.0   -5.685931613003166e-05
-2.685474628138626e-05   3.988309806553421e-06   -4.803106617560471e-06
-2.685474628138626e-05   3.988309806553421e-06   -4.803106617560471e-06
-2.685474628138626e-05   3.988309806553421e-06   -4.803106617560471e-06
-2.685474628138626e-05   3.988309806553421e-06   -4.803106617560471e-06
-1.0804179839369539e-05   2.2510763419079837e-06   -3.0511710608801043e-05
-1.0804179839369539e-05   2.2510763419079837e-06   -3.0511710608801043e-05
-1.0804179839369539e-05   2.2510763419079837e-06   -3.0511710608801043e-05
-1.0804179839369539e-05   2.2510763419079837e-06   -3.0511710608801043e-05
3.7911967136104165e-06   0.0   -5.719802604028709e-05
3.7911967136104165e-06   0.0   -5.719802604028709e-05
3.7911967136104165e-06   0.0   -5.719802604028709e-05
3.7911967136104165e-06   0.0   -5.719802604028709e-05
3.955856125895109e-05   -4.639807544520072e-06   -3.696363247644149e-07
3.955856125895109e-05   -4.639807544520072e-06   -3.696363247644149e-07
3.955856125895109e-05   -4.639807544520072e-06   -3.696363247644149e-07
3.955856125895109e-05   -4.639807544520072e-06   -3.696363247644149e-07
3.962647778345108e-05   0.0   -6.030164446849292e-05
3.962647778345108e-05   0.0   -6.030164446849292e-05
3.962647778345108e-05   0.0   -6.030164446849292e-05
3.962647778345108e-05   0.0   -6.030164446849292e-05
4.500907538902725e-06   -3.4982094311905695e-06   3.398982644686654e-07
4.500907538902725e-06   -3.4982094311905695e-06   3.398982644686654e-07
4.500907538902725e-06   -3.4982094311905695e-06   3.398982644686654e-07
4.500907538902725e-06   -3.4982094311905695e-06   3.398982644686654e-07
2.170883724853075e-05   -2.586348690171523e-06   -2.888710102952277e-05
2.170883724853075e-05   -2.586348690171523e-06   -2.888710102952277e-05
2.170883724853075e-05   -2.586348690171523e-06   -2.888710102952277e-05
2.170883724853075e-05   -2.586348690171523e-06   -2.888710102952277e-05
4.5009075389027326e-06   0.0   -5.820271880977857e-05
4.5009075389027326e-06   0.0   -5.820271880977857e-05
4.5009075389027326e-06   0.0   -5.820271880977857e-05
4.5009075389027326e-06   0.0   -5.820271880977857e-05
3.962647778345101e-05   -3.4982094311905695e-06   -1.7590273942456799e-06
3.962647778345101e-05   -3.4982094311905695e-06   -1.7590273942456799e-06
3.962647778345101e-05   -3.4982094311905695e-06   -1.7590273942456799e-06
3.962647778345101e-05   -3.4982094311905695e-06   -1.7590273942456799e-06
3.9454673289148926e-05   0.0   -5.9440542378528036e-05
3.9454673289148926e-05   0.0   -5.9440542378528036e-05
3.9454673289148926e-05   0.0   -5.9440542378528036e-05
3.9454673289148926e-05   0.0   -5.9440542378528036e-05
5.0608647382278975e-06   -2.2016333898927144e-06   -7.965480930573736e-07
5.0608647382278975e-06   -2.2016333898927144e-06   -7.965480930573736e-07
5.0608647382278975e-06   -2.2016333898927144e-06   -7.965480930573736e-07
5.0608647382278975e-06   -2.2016333898927144e-06   -7.965480930573736e-07
2.197779041402583e-05   -1.0315196406245609e-06   -2.9693492468948124e-05
2.197779041402583e-05   -1.0315196406245609e-06   -2.9693492468948124e-05
2.197779041402583e-05   -1.0315196406245609e-06   -2.9693492468948124e-05
2.197779041402583e-05   -1.0315196406245609e-06   -2.9693492468948124e-05
5.0608647382278975e-06   0.0   -5.811956234459242e-05
5.0608647382278975e-06   0.0   -5.811956234459242e-05
5.0608647382278975e-06   0.0   -5.811956234459242e-05
5.0608647382278975e-06   0.0   -5.811956234459242e-05
3.945467328914886e-05   -2.201633389892701e-06   -2.1175281269929913e-06
3.945467328914886e-05   -2.201633389892701e-06   -2.1175281269929913e-06
3.945467328914886e-05   -2.201633389892701e-06   -2.1175281269929913e-06
3.945467328914886e-05   -2.201633389892701e-06   -2.1175281269929913e-06
4.021678334215953e-05   0.0   -5.713483452680277e-05
4.021678334215953e-05   0.0   -5.713483452680277e-05
4.021678334215953e-05   0.0   -5.713483452680277e-05
4.021678334215953e-05   0.0   -5.713483452680277e-05
5.8147709564557045e-06   -4.5919732795168464e-07   4.773711794746083e-07
5.8147709564557045e-06   -4.5919732795168464e-07   4.773711794746083e-07
5.8147709564557045e-06   -4.5919732795168464e-07   4.773711794746083e-07
5.8147709564557045e-06   -4.5919732795168464e-07   4.773711794746083e-07
2.2638824040193716e-05   8.206065148247009e-07   -2.8330599599087877e-05
2.2638824040193716e-05   8.206065148247009e-07   -2.8330599599087877e-05
2.2638824040193716e-05   8.206065148247009e-07   -2.8330599599087877e-05
2.2638824040193716e-05   8.206065148247009e-07   -2.8330599599087877e-05
3.9558561258951224e-05   0.0   -5.998191056699914e-05
3.9558561258951224e-05   0.0   -5.998191056699914e-05
3.9558561258951224e-05   0.0   -5.998191056699914e-05
3.9558561258951224e-05   0.0   -5.998191056699914e-05
8.92962776571281e-05   -1.1760259147572714e-05   1.5858127941418984e-05
8.92962776571281e-05   -1.1760259147572714e-05   1.5858127941418984e-05
8.92962776571281e-05   -1.1760259147572714e-05   1.5858127941418984e-05
8.92962776571281e-05   -1.1760259147572714e-05   1.5858127941418984e-05
8.386046499695343e-05   0.0   -6.63060785384213e-05
8.386046499695343e-05   0.0   -6.63060785384213e-05
8.386046499695343e-05   0.0   -6.63060785384213e-05
8.386046499695343e-05   0.0   -6.63060785384213e-05
3.962647778345101e-05   -1.000739011654729e-05   1.3421667554010963e-05
3.962647778345101e-05   -1.000739011654729e-05   1.3421667554010963e-05
3.962647778345101e-05   -1.000739011654729e-05   1.3421667554010963e-05
3.962647778345101e-05   -1.000739011654729e-05   1.3421667554010963e-05
6.170951312795233e-05   -5.2701399761851384e-06   -2.6225741437708356e-05
6.170951312795233e-05   -5.2701399761851384e-06   -2.6225741437708356e-05
6.170951312795233e-05   -5.2701399761851384e-06   -2.6225741437708356e-05
6.170951312795233e-05   -5.2701399761851384e-06   -2.6225741437708356e-05
3.9626477783451044e-05   0.0   -6.0301644468492865e-05
3.9626477783451044e-05   0.0   -6.0301644468492865e-05
3.9626477783451044e-05   0.0   -6.0301644468492865e-05
3.9626477783451044e-05   0.0   -6.0301644468492865e-05
8.386046499695343e-05   -1.0007390116547317e-05   7.4172334840826135e-06
8.386046499695343e-05   -1.0007390116547317e-05   7.4172334840826135e-06
8.386046499695343e-05   -1.0007390116547317e-05   7.4172334840826135e-06
8.386046499695343e-05   -1.0007390116547317e-05   7.4172334840826135e-06
8.135285038237554e-05   0.0   -6.492751596793505e-05
8.135285038237554e-05   0.0   -6.492751596793505e-05
8.135285038237554e-05   0.0   -6.492751596793505e-05
8.135285038237554e-05   0.0   -6.492751596793505e-05
3.945467328914886e-05   -9.144955982345009e-06   1.0389752776849602e-05
3.945467328914886e-05   -9.144955982345009e-06   1.0389752776849602e-05
3.945467328914886e-05   -9.144955982345009e-06   1.0389752776849602e-05
3.945467328914886e-05   -9.144955982345009e-06   1.0389752776849602e-05
6.0489664082913276e-05   -3.854892916201787e-06   -2.7842603052443555e-05
6.0489664082913276e-05   -3.854892916201787e-06   -2.7842603052443555e-05
6.0489664082913276e-05   -3.854892916201787e-06   -2.7842603052443555e-05
6.0489664082913276e-05   -3.854892916201787e-06   -2.7842603052443555e-05
3.9454673289148926e-05   0.0   -5.9440542378528036e-05
3.9454673289148926e-05   0.0   -5.9440542378528036e-05
3.9454673289148926e-05   0.0   -5.9440542378528036e-05
3.9454673289148926e-05   0.0   -5.9440542378528036e-05
8.13528503823754e-05   -9.144955982345009e-06   4.90277918744261e-06
8.13528503823754e-05   -9.144955982345009e-06   4.90277918744261e-06
8.13528503823754e-05   -9.144955982345009e-06   4.90277918744261e-06
8.13528503823754e-05   -9.144955982345009e-06   4.90277918744261e-06
7.762117838159932e-05   0.0   -6.14003460126552e-05
7.762117838159932e-05   0.0   -6.14003460126552e-05
7.762117838159932e-05   0.0   -6.14003460126552e-05
7.762117838159932e-05   0.0   -6.14003460126552e-05
4.0216783342159424e-05   -7.109185809754033e-06   5.205823872263572e-06
4.0216783342159424e-05   -7.109185809754033e-06   5.205823872263572e-06
4.0216783342159424e-05   -7.109185809754033e-06   5.205823872263572e-06
4.0216783342159424e-05   -7.109185809754033e-06   5.205823872263572e-06
5.853792583537402e-05   -1.633169695105972e-06   -2.8615023285216233e-05
5.853792583537402e-05   -1.633169695105972e-06   -2.8615023285216233e-05
5.853792583537402e-05   -1.633169695105972e-06   -2.8615023285216233e-05
5.853792583537402e-05   -1.633169695105972e-06   -2.8615023285216233e-05
-8.732498610904173e-05   1.115032729409279e-05   -5.728523075408682e-05
-8.732498610904173e-05   1.115032729409279e-05   -5.728523075408682e-05
-8.732498610904173e-05   1.115032729409279e-05   -5.728523075408682e-05
-8.732498610904173e-05   1.115032729409279e-05   -5.728523075408682e-05