<?xml version="1.0"?> 
<VTKFile type="UnstructuredGrid"> 
   <UnstructuredGrid> 
      <Piece NumberOfPoints="6000"  NumberOfCells="1500">  
          <Points>  
             <DataArray type="Float64" NumberOfComponents="3" format="ascii">   
-500.0   0.0   0.0
-450.0   0.0   0.0
-500.0   30.0   0.0
-500.0   0.0   16.666666666666668
-450.0   0.0   0.0
-450.0   30.0   0.0
-500.0   30.0   0.0
-450.0   30.0   16.666666666666668
-500.0   0.0   16.666666666666668
-500.0   30.0   16.666666666666668
-450.0   30.0   16.666666666666668
-500.0   30.0   0.0
-500.0   0.0   16.666666666666668
-450.0   30.0   16.666666666666668
-450.0   0.0   16.666666666666668
-450.0   0.0   0.0
-500.0   0.0   16.666666666666668
-450.0   30.0   16.666666666666668
-450.0   0.0   0.0
-500.0   30.0   0.0
-500.0   0.0   16.666666666666668
-450.0   0.0   16.666666666666668
-500.0   30.0   16.666666666666668
-500.0   0.0   33.333333333333336
-450.0   0.0   16.666666666666668
-450.0   30.0   16.666666666666668
-500.0   30.0   16.666666666666668
-450.0   30.0   33.333333333333336
-500.0   0.0   33.333333333333336
-500.0   30.0   33.333333333333336
-450.0   30.0   33.333333333333336
-500.0   30.0   16.666666666666668
-500.0   0.0   33.333333333333336
-450.0   30.0   33.333333333333336
-450.0   0.0   33.333333333333336
-450.0   0.0   16.666666666666668
-500.0   0.0   33.333333333333336
-450.0   30.0   33.333333333333336
-450.0   0.0   16.666666666666668
-500.0   30.0   16.666666666666668
-500.0   0.0   33.333333333333336
-450.0   0.0   33.333333333333336
-500.0   30.0   33.333333333333336
-500.0   0.0   50.0
-450.0   0.0   33.333333333333336
-450.0   30.0   33.333333333333336
-500.0   30.0   33.333333333333336
-450.0   30.0   50.0
-500.0   0.0   50.0
-500.0   30.0   50.0
-450.0   30.0   50.0
-500.0   30.0   33.333333333333336
-500.0   0.0   50.0
-450.0   30.0   50.0
-450.0   0.0   50.0
-450.0   0.0   33.333333333333336
-500.0   0.0   50.0
-450.0   30.0   50.0
-450.0   0.0   33.333333333333336
-500.0   30.0   33.333333333333336
-500.0   30.0   0.0
-450.0   30.0   0.0
-500.0   60.0   0.0
-500.0   30.0   16.666666666666668
-450.0   30.0   0.0
-450.0   60.0   0.0
-500.0   60.0   0.0
-450.0   60.0   16.666666666666668
-500.0   30.0   16.666666666666668
-500.0   60.0   16.666666666666668
-450.0   60.0   16.666666666666668
-500.0   60.0   0.0
-500.0   30.0   16.666666666666668
-450.0   60.0   16.666666666666668
-450.0   30.0   16.666666666666668
-450.0   30.0   0.0
-500.0   30.0   16.666666666666668
-450.0   60.0   16.666666666666668
-450.0   30.0   0.0
-500.0   60.0   0.0
-500.0   30.0   16.666666666666668
-450.0   30.0   16.666666666666668
-500.0   60.0   16.666666666666668
-500.0   30.0   33.333333333333336
-450.0   30.0   16.666666666666668
-450.0   60.0   16.666666666666668
-500.0   60.0   16.666666666666668
-450.0   60.0   33.333333333333336
-500.0   30.0   33.333333333333336
-500.0   60.0   33.333333333333336
-450.0   60.0   33.333333333333336
-500.0   60.0   16.666666666666668
-500.0   30.0   33.333333333333336
-450.0   60.0   33.333333333333336
-450.0   30.0   33.333333333333336
-450.0   30.0   16.666666666666668
-500.0   30.0   33.333333333333336
-450.0   60.0   33.333333333333336
-450.0   30.0   16.666666666666668
-500.0   60.0   16.666666666666668
-500.0   30.0   33.333333333333336
-450.0   30.0   33.333333333333336
-500.0   60.0   33.333333333333336
-500.0   30.0   50.0
-450.0   30.0   33.333333333333336
-450.0   60.0   33.333333333333336
-500.0   60.0   33.333333333333336
-450.0   60.0   50.0
-500.0   30.0   50.0
-500.0   60.0   50.0
-450.0   60.0   50.0
-500.0   60.0   33.333333333333336
-500.0   30.0   50.0
-450.0   60.0   50.0
-450.0   30.0   50.0
-450.0   30.0   33.333333333333336
-500.0   30.0   50.0
-450.0   60.0   50.0
-450.0   30.0   33.333333333333336
-500.0   60.0   33.333333333333336
-500.0   60.0   0.0
-450.0   60.0   0.0
-500.0   90.0   0.0
-500.0   60.0   16.666666666666668
-450.0   60.0   0.0
-450.0   90.0   0.0
-500.0   90.0   0.0
-450.0   90.0   16.666666666666668
-500.0   60.0   16.666666666666668
-500.0   90.0   16.666666666666668
-450.0   90.0   16.666666666666668
-500.0   90.0   0.0
-500.0   60.0   16.666666666666668
-450.0   90.0   16.666666666666668
-450.0   60.0   16.666666666666668
-450.0   60.0   0.0
-500.0   60.0   16.666666666666668
-450.0   90.0   16.666666666666668
-450.0   60.0   0.0
-500.0   90.0   0.0
-500.0   60.0   16.666666666666668
-450.0   60.0   16.666666666666668
-500.0   90.0   16.666666666666668
-500.0   60.0   33.333333333333336
-450.0   60.0   16.666666666666668
-450.0   90.0   16.666666666666668
-500.0   90.0   16.666666666666668
-450.0   90.0   33.333333333333336
-500.0   60.0   33.333333333333336
-500.0   90.0   33.333333333333336
-450.0   90.0   33.333333333333336
-500.0   90.0   16.666666666666668
-500.0   60.0   33.333333333333336
-450.0   90.0   33.333333333333336
-450.0   60.0   33.333333333333336
-450.0   60.0   16.666666666666668
-500.0   60.0   33.333333333333336
-450.0   90.0   33.333333333333336
-450.0   60.0   16.666666666666668
-500.0   90.0   16.666666666666668
-500.0   60.0   33.333333333333336
-450.0   60.0   33.333333333333336
-500.0   90.0   33.333333333333336
-500.0   60.0   50.0
-450.0   60.0   33.333333333333336
-450.0   90.0   33.333333333333336
-500.0   90.0   33.333333333333336
-450.0   90.0   50.0
-500.0   60.0   50.0
-500.0   90.0   50.0
-450.0   90.0   50.0
-500.0   90.0   33.333333333333336
-500.0   60.0   50.0
-450.0   90.0   50.0
-450.0   60.0   50.0
-450.0   60.0   33.333333333333336
-500.0   60.0   50.0
-450.0   90.0   50.0
-450.0   60.0   33.333333333333336
-500.0   90.0   33.333333333333336
-500.0   90.0   0.0
-450.0   90.0   0.0
-500.0   120.0   0.0
-500.0   90.0   16.666666666666668
-450.0   90.0   0.0
-450.0   120.0   0.0
-500.0   120.0   0.0
-450.0   120.0   16.666666666666668
-500.0   90.0   16.666666666666668
-500.0   120.0   16.666666666666668
-450.0   120.0   16.666666666666668
-500.0   120.0   0.0
-500.0   90.0   16.666666666666668
-450.0   120.0   16.666666666666668
-450.0   90.0   16.666666666666668
-450.0   90.0   0.0
-500.0   90.0   16.666666666666668
-450.0   120.0   16.666666666666668
-450.0   90.0   0.0
-500.0   120.0   0.0
-500.0   90.0   16.666666666666668
-450.0   90.0   16.666666666666668
-500.0   120.0   16.666666666666668
-500.0   90.0   33.333333333333336
-450.0   90.0   16.666666666666668
-450.0   120.0   16.666666666666668
-500.0   120.0   16.666666666666668
-450.0   120.0   33.333333333333336
-500.0   90.0   33.333333333333336
-500.0   120.0   33.333333333333336
-450.0   120.0   33.333333333333336
-500.0   120.0   16.666666666666668
-500.0   90.0   33.333333333333336
-450.0   120.0   33.333333333333336
-450.0   90.0   33.333333333333336
-450.0   90.0   16.666666666666668
-500.0   90.0   33.333333333333336
-450.0   120.0   33.333333333333336
-450.0   90.0   16.666666666666668
-500.0   120.0   16.666666666666668
-500.0   90.0   33.333333333333336
-450.0   90.0   33.333333333333336
-500.0   120.0   33.333333333333336
-500.0   90.0   50.0
-450.0   90.0   33.333333333333336
-450.0   120.0   33.333333333333336
-500.0   120.0   33.333333333333336
-450.0   120.0   50.0
-500.0   90.0   50.0
-500.0   120.0   50.0
-450.0   120.0   50.0
-500.0   120.0   33.333333333333336
-500.0   90.0   50.0
-450.0   120.0   50.0
-450.0   90.0   50.0
-450.0   90.0   33.333333333333336
-500.0   90.0   50.0
-450.0   120.0   50.0
-450.0   90.0   33.333333333333336
-500.0   120.0   33.333333333333336
-500.0   120.0   0.0
-450.0   120.0   0.0
-500.0   150.0   0.0
-500.0   120.0   16.666666666666668
-450.0   120.0   0.0
-450.0   150.0   0.0
-500.0   150.0   0.0
-450.0   150.0   16.666666666666668
-500.0   120.0   16.666666666666668
-500.0   150.0   16.666666666666668
-450.0   150.0   16.666666666666668
-500.0   150.0   0.0
-500.0   120.0   16.666666666666668
-450.0   150.0   16.666666666666668
-450.0   120.0   16.666666666666668
-450.0   120.0   0.0
-500.0   120.0   16.666666666666668
-450.0   150.0   16.666666666666668
-450.0   120.0   0.0
-500.0   150.0   0.0
-500.0   120.0   16.666666666666668
-450.0   120.0   16.666666666666668
-500.0   150.0   16.666666666666668
-500.0   120.0   33.333333333333336
-450.0   120.0   16.666666666666668
-450.0   150.0   16.666666666666668
-500.0   150.0   16.666666666666668
-450.0   150.0   33.333333333333336
-500.0   120.0   33.333333333333336
-500.0   150.0   33.333333333333336
-450.0   150.0   33.333333333333336
-500.0   150.0   16.666666666666668
-500.0   120.0   33.333333333333336
-450.0   150.0   33.333333333333336
-450.0   120.0   33.333333333333336
-450.0   120.0   16.666666666666668
-500.0   120.0   33.333333333333336
-450.0   150.0   33.333333333333336
-450.0   120.0   16.666666666666668
-500.0   150.0   16.666666666666668
-500.0   120.0   33.333333333333336
-450.0   120.0   33.333333333333336
-500.0   150.0   33.333333333333336
-500.0   120.0   50.0
-450.0   120.0   33.333333333333336
-450.0   150.0   33.333333333333336
-500.0   150.0   33.333333333333336
-450.0   150.0   50.0
-500.0   120.0   50.0
-500.0   150.0   50.0
-450.0   150.0   50.0
-500.0   150.0   33.333333333333336
-500.0   120.0   50.0
-450.0   150.0   50.0
-450.0   120.0   50.0
-450.0   120.0   33.333333333333336
-500.0   120.0   50.0
-450.0   150.0   50.0
-450.0   120.0   33.333333333333336
-500.0   150.0   33.333333333333336
-450.0   0.0   0.0
-400.0   0.0   0.0
-450.0   30.0   0.0
-450.0   0.0   16.666666666666668
-400.0   0.0   0.0
-400.0   30.0   0.0
-450.0   30.0   0.0
-400.0   30.0   16.666666666666668
-450.0   0.0   16.666666666666668
-450.0   30.0   16.666666666666668
-400.0   30.0   16.666666666666668
-450.0   30.0   0.0
-450.0   0.0   16.666666666666668
-400.0   30.0   16.666666666666668
-400.0   0.0   16.666666666666668
-400.0   0.0   0.0
-450.0   0.0   16.666666666666668
-400.0   30.0   16.666666666666668
-400.0   0.0   0.0
-450.0   30.0   0.0
-450.0   0.0   16.666666666666668
-400.0   0.0   16.666666666666668
-450.0   30.0   16.666666666666668
[...]
          <PointData>  
             <DataArray type="Float64" NumberOfComponents="3" Name="Strains" format="ascii">   
-0.0001256662772533859   0.0   -8.238872985366441e-05
-0.0001256662772533859   0.0   -8.238872985366441e-05
-0.0001256662772533859   0.0   -8.238872985366441e-05
-0.0001256662772533859   0.0   -8.238872985366441e-05
-7.997242082078531e-05   1.393286089295038e-05   2.1274140697733032e-06
-7.997242082078531e-05   1.393286089295038e-05   2.1274140697733032e-06
-7.997242082078531e-05   1.393286089295038e-05   2.1274140697733032e-06
-7.997242082078531e-05   1.393286089295038e-05   2.1274140697733032e-06
-7.839695842424744e-05   0.0   -7.774734525314297e-05
-7.839695842424744e-05   0.0   -7.774734525314297e-05
-7.839695842424744e-05   0.0   -7.774734525314297e-05
-7.839695842424744e-05   0.0   -7.774734525314297e-05
-0.00013152329092701336   1.6714681082323816e-05   7.677336020729566e-07
-0.00013152329092701336   1.6714681082323816e-05   7.677336020729566e-07
-0.00013152329092701336   1.6714681082323816e-05   7.677336020729566e-07
-0.00013152329092701336   1.6714681082323816e-05   7.677336020729566e-07
-0.0001020316178388165   3.867820500434545e-06   -4.067693852912153e-05
-0.0001020316178388165   3.867820500434545e-06   -4.067693852912153e-05
-0.0001020316178388165   3.867820500434545e-06   -4.067693852912153e-05
-0.0001020316178388165   3.867820500434545e-06   -4.067693852912153e-05
-0.00013152329092701358   0.0   -8.777615390253727e-05
-0.00013152329092701358   0.0   -8.777615390253727e-05
-0.00013152329092701358   0.0   -8.777615390253727e-05
-0.00013152329092701358   0.0   -8.777615390253727e-05
-7.839695842424744e-05   1.6714681082323843e-05   1.079654225146729e-05
-7.839695842424744e-05   1.6714681082323843e-05   1.079654225146729e-05
-7.839695842424744e-05   1.6714681082323843e-05   1.079654225146729e-05
-7.839695842424744e-05   1.6714681082323843e-05   1.079654225146729e-05
-7.862468381293077e-05   0.0   -7.965211219230662e-05
-7.862468381293077e-05   0.0   -7.965211219230662e-05
-7.862468381293077e-05   0.0   -7.965211219230662e-05
-7.862468381293077e-05   0.0   -7.965211219230662e-05
-0.00013563965890357198   1.7905773259718435e-05   4.629382336264698e-06
-0.00013563965890357198   1.7905773259718435e-05   4.629382336264698e-06
-0.00013563965890357198   1.7905773259718435e-05   4.629382336264698e-06
-0.00013563965890357198   1.7905773259718435e-05   4.629382336264698e-06
-0.000105073987369972   6.770034758525544e-06   -3.9631960452352836e-05
-0.000105073987369972   6.770034758525544e-06   -3.9631960452352836e-05
-0.000105073987369972   6.770034758525544e-06   -3.9631960452352836e-05
-0.000105073987369972   6.770034758525544e-06   -3.9631960452352836e-05
-0.0001356396589035722   0.0   -9.039557614813771e-05
-0.0001356396589035722   0.0   -9.039557614813771e-05
-0.0001356396589035722   0.0   -9.039557614813771e-05
-0.0001356396589035722   0.0   -9.039557614813771e-05
-7.862468381293063e-05   1.7905773259718435e-05   1.5372846292095743e-05
-7.862468381293063e-05   1.7905773259718435e-05   1.5372846292095743e-05
-7.862468381293063e-05   1.7905773259718435e-05   1.5372846292095743e-05
-7.862468381293063e-05   1.7905773259718435e-05   1.5372846292095743e-05
-7.859083316390347e-05   0.0   -8.014051551688763e-05
-7.859083316390347e-05   0.0   -8.014051551688763e-05
-7.859083316390347e-05   0.0   -8.014051551688763e-05
-7.859083316390347e-05   0.0   -8.014051551688763e-05
-0.00014450086792640592   2.0393697999184987e-05   1.7473323621105798e-05
-0.00014450086792640592   2.0393697999184987e-05   1.7473323621105798e-05
-0.00014450086792640592   2.0393697999184987e-05   1.7473323621105798e-05
-0.00014450086792640592   2.0393697999184987e-05   1.7473323621105798e-05
-0.00010711524603373766   8.54588385937506e-06   -3.7727357716121955e-05
-0.00010711524603373766   8.54588385937506e-06   -3.7727357716121955e-05
-0.00010711524603373766   8.54588385937506e-06   -3.7727357716121955e-05
-0.00010711524603373766   8.54588385937506e-06   -3.7727357716121955e-05
-7.997242082078544e-05   0.0   -7.402901331789418e-05
-7.997242082078544e-05   0.0   -7.402901331789418e-05
-7.997242082078544e-05   0.0   -7.402901331789418e-05
-7.997242082078544e-05   0.0   -7.402901331789418e-05
-3.641220336714711e-05   5.1122341749950295e-06   1.6386896098333559e-06
-3.641220336714711e-05   5.1122341749950295e-06   1.6386896098333559e-06
-3.641220336714711e-05   5.1122341749950295e-06   1.6386896098333559e-06
-3.641220336714711e-05   5.1122341749950295e-06   1.6386896098333559e-06
-3.502720595829298e-05   0.0   -7.338266513899557e-05
-3.502720595829298e-05   0.0   -7.338266513899557e-05
-3.502720595829298e-05   0.0   -7.338266513899557e-05
-3.502720595829298e-05   0.0   -7.338266513899557e-05
-7.839695842424744e-05   7.274466856912109e-06   -5.464424476552324e-06
-7.839695842424744e-05   7.274466856912109e-06   -5.464424476552324e-06
-7.839695842424744e-05   7.274466856912109e-06   -5.464424476552324e-06
-7.839695842424744e-05   7.274466856912109e-06   -5.464424476552324e-06
-5.749981338953914e-05   5.386234824154092e-07   -3.6251493509701186e-05
-5.749981338953914e-05   5.386234824154092e-07   -3.6251493509701186e-05
-5.749981338953914e-05   5.386234824154092e-07   -3.6251493509701186e-05
-5.749981338953914e-05   5.386234824154092e-07   -3.6251493509701186e-05
-7.839695842424737e-05   0.0   -7.77473452531429e-05
-7.839695842424737e-05   0.0   -7.77473452531429e-05
-7.839695842424737e-05   0.0   -7.77473452531429e-05
-7.839695842424737e-05   0.0   -7.77473452531429e-05
-3.502720595829298e-05   7.274466856912109e-06   -1.0997443624050516e-06
-3.502720595829298e-05   7.274466856912109e-06   -1.0997443624050516e-06
-3.502720595829298e-05   7.274466856912109e-06   -1.0997443624050516e-06
-3.502720595829298e-05   7.274466856912109e-06   -1.0997443624050516e-06
-3.4252059802797185e-05   0.0   -7.430518708937085e-05
-3.4252059802797185e-05   0.0   -7.430518708937085e-05
-3.4252059802797185e-05   0.0   -7.430518708937085e-05
-3.4252059802797185e-05   0.0   -7.430518708937085e-05
-7.862468381293077e-05   8.911541838226071e-06   -5.697738842084095e-06
-7.862468381293077e-05   8.911541838226071e-06   -5.697738842084095e-06
-7.862468381293077e-05   8.911541838226071e-06   -5.697738842084095e-06
-7.862468381293077e-05   8.911541838226071e-06   -5.697738842084095e-06
-5.632450911352232e-05   2.868465136476658e-06   -3.923885065338176e-05
-5.632450911352232e-05   2.868465136476658e-06   -3.923885065338176e-05
-5.632450911352232e-05   2.868465136476658e-06   -3.923885065338176e-05
-5.632450911352232e-05   2.868465136476658e-06   -3.923885065338176e-05
-7.862468381293077e-05   0.0   -7.965211219230662e-05
-7.862468381293077e-05   0.0   -7.965211219230662e-05
-7.862468381293077e-05   0.0   -7.965211219230662e-05
-7.862468381293077e-05   0.0   -7.965211219230662e-05
-3.4252059802797246e-05   8.911541838226071e-06   -3.508137391484536e-07
-3.4252059802797246e-05   8.911541838226071e-06   -3.508137391484536e-07
-3.4252059802797246e-05   8.911541838226071e-06   -3.508137391484536e-07
-3.4252059802797246e-05   8.911541838226071e-06   -3.508137391484536e-07
-3.354732409691317e-05   0.0   -7.391968799241131e-05
-3.354732409691317e-05   0.0   -7.391968799241131e-05
-3.354732409691317e-05   0.0   -7.391968799241131e-05
-3.354732409691317e-05   0.0   -7.391968799241131e-05
-7.859083316390327e-05   1.0368045874127081e-05   -5.068000405237096e-06
-7.859083316390327e-05   1.0368045874127081e-05   -5.068000405237096e-06
-7.859083316390327e-05   1.0368045874127081e-05   -5.068000405237096e-06
-7.859083316390327e-05   1.0368045874127081e-05   -5.068000405237096e-06
-5.608600395492195e-05   4.7770201665793695e-06   -3.92214336623443e-05
-5.608600395492195e-05   4.7770201665793695e-06   -3.92214336623443e-05
-5.608600395492195e-05   4.7770201665793695e-06   -3.92214336623443e-05
-5.608600395492195e-05   4.7770201665793695e-06   -3.92214336623443e-05
-3.641220336714717e-05   0.0   -7.096167281289717e-05
-3.641220336714717e-05   0.0   -7.096167281289717e-05
-3.641220336714717e-05   0.0   -7.096167281289717e-05
-3.641220336714717e-05   0.0   -7.096167281289717e-05
4.749687099938554e-06   -6.53289966507357e-07   -2.7504960143253067e-06
4.749687099938554e-06   -6.53289966507357e-07   -2.7504960143253067e-06
4.749687099938554e-06   -6.53289966507357e-07   -2.7504960143253067e-06
4.749687099938554e-06   -6.53289966507357e-07   -2.7504960143253067e-06
5.630654315924718e-06   0.0   -7.260930740041175e-05
5.630654315924718e-06   0.0   -7.260930740041175e-05
5.630654315924718e-06   0.0   -7.260930740041175e-05
5.630654315924718e-06   0.0   -7.260930740041175e-05
-3.502720595829298e-05   1.2889295643061632e-06   -5.619564681966064e-06
-3.502720595829298e-05   1.2889295643061632e-06   -5.619564681966064e-06
-3.502720595829298e-05   1.2889295643061632e-06   -5.619564681966064e-06
-3.502720595829298e-05   1.2889295643061632e-06   -5.619564681966064e-06
-1.539077452561119e-05   -1.373028822929024e-06   -3.674977537076123e-05
-1.539077452561119e-05   -1.373028822929024e-06   -3.674977537076123e-05
-1.539077452561119e-05   -1.373028822929024e-06   -3.674977537076123e-05
-1.539077452561119e-05   -1.373028822929024e-06   -3.674977537076123e-05
-3.502720595829304e-05   0.0   -7.33826651389957e-05
-3.502720595829304e-05   0.0   -7.33826651389957e-05
-3.502720595829304e-05   0.0   -7.33826651389957e-05
-3.502720595829304e-05   0.0   -7.33826651389957e-05
5.6306543159247284e-06   1.2889295643061632e-06   -4.846206943382365e-06
5.6306543159247284e-06   1.2889295643061632e-06   -4.846206943382365e-06
5.6306543159247284e-06   1.2889295643061632e-06   -4.846206943382365e-06
5.6306543159247284e-06   1.2889295643061632e-06   -4.846206943382365e-06
6.325092892863734e-06   0.0   -7.250593813483609e-05
6.325092892863734e-06   0.0   -7.250593813483609e-05
6.325092892863734e-06   0.0   -7.250593813483609e-05
6.325092892863734e-06   0.0   -7.250593813483609e-05
-3.4252059802797124e-05   2.998748257557925e-06   -6.676599263269326e-06
-3.4252059802797124e-05   2.998748257557925e-06   -6.676599263269326e-06
-3.4252059802797124e-05   2.998748257557925e-06   -6.676599263269326e-06
-3.4252059802797124e-05   2.998748257557925e-06   -6.676599263269326e-06
-1.4351056532714621e-05   7.306058367995659e-07   -3.8484052594285216e-05
-1.4351056532714621e-05   7.306058367995659e-07   -3.8484052594285216e-05
-1.4351056532714621e-05   7.306058367995659e-07   -3.8484052594285216e-05
-1.4351056532714621e-05   7.306058367995659e-07   -3.8484052594285216e-05
-3.4252059802797246e-05   0.0   -7.430518708937097e-05
-3.4252059802797246e-05   0.0   -7.430518708937097e-05
-3.4252059802797246e-05   0.0   -7.430518708937097e-05
-3.4252059802797246e-05   0.0   -7.430518708937097e-05
6.325092892863745e-06   2.998748257557925e-06   -4.8773503087345815e-06
6.325092892863745e-06   2.998748257557925e-06   -4.8773503087345815e-06
6.325092892863745e-06   2.998748257557925e-06   -4.8773503087345815e-06
6.325092892863745e-06   2.998748257557925e-06   -4.8773503087345815e-06
7.261664879814398e-06   0.0   -7.093195895802413e-05
7.261664879814398e-06   0.0   -7.093195895802413e-05
7.261664879814398e-06   0.0   -7.093195895802413e-05
7.261664879814398e-06   0.0   -7.093195895802413e-05
-3.354732409691314e-05   4.979548390645185e-06   -5.904706364532021e-06
-3.354732409691314e-05   4.979548390645185e-06   -5.904706364532021e-06
-3.354732409691314e-05   4.979548390645185e-06   -5.904706364532021e-06
-3.354732409691314e-05   4.979548390645185e-06   -5.904706364532021e-06
-1.3495197461491394e-05   2.8110234427889332e-06   -3.8023802454854476e-05
-1.3495197461491394e-05   2.8110234427889332e-06   -3.8023802454854476e-05
-1.3495197461491394e-05   2.8110234427889332e-06   -3.8023802454854476e-05
-1.3495197461491394e-05   2.8110234427889332e-06   -3.8023802454854476e-05
4.749687099938563e-06   0.0   -7.135364679280157e-05
4.749687099938563e-06   0.0   -7.135364679280157e-05
4.749687099938563e-06   0.0   -7.135364679280157e-05
4.749687099938563e-06   0.0   -7.135364679280157e-05
4.942465396976351e-05   -5.796972138749122e-06   -3.7355195967583236e-07
4.942465396976351e-05   -5.796972138749122e-06   -3.7355195967583236e-07
4.942465396976351e-05   -5.796972138749122e-06   -3.7355195967583236e-07
4.942465396976351e-05   -5.796972138749122e-06   -3.7355195967583236e-07
4.9503452814382226e-05   0.0   -7.523251895698989e-05
4.9503452814382226e-05   0.0   -7.523251895698989e-05
4.9503452814382226e-05   0.0   -7.523251895698989e-05
4.9503452814382226e-05   0.0   -7.523251895698989e-05
5.6306543159247284e-06   -4.3720192609631635e-06   5.120234303504836e-07
5.6306543159247284e-06   -4.3720192609631635e-06   5.120234303504836e-07
5.6306543159247284e-06   -4.3720192609631635e-06   5.120234303504836e-07
5.6306543159247284e-06   -4.3720192609631635e-06   5.120234303504836e-07
2.7126569957160394e-05   -3.2323934701569272e-06   -3.599827811285932e-05
2.7126569957160394e-05   -3.2323934701569272e-06   -3.599827811285932e-05
2.7126569957160394e-05   -3.2323934701569272e-06   -3.599827811285932e-05
2.7126569957160394e-05   -3.2323934701569272e-06   -3.599827811285932e-05
5.630654315924738e-06   0.0   -7.260930740041199e-05
5.630654315924738e-06   0.0   -7.260930740041199e-05
5.630654315924738e-06   0.0   -7.260930740041199e-05
5.630654315924738e-06   0.0   -7.260930740041199e-05
4.950345281438214e-05   -4.3720192609631635e-06   -2.111188126227413e-06
4.950345281438214e-05   -4.3720192609631635e-06   -2.111188126227413e-06
4.950345281438214e-05   -4.3720192609631635e-06   -2.111188126227413e-06
4.950345281438214e-05   -4.3720192609631635e-06   -2.111188126227413e-06
4.9283606127487335e-05   0.0   -7.415816189459879e-05
4.9283606127487335e-05   0.0   -7.415816189459879e-05
4.9283606127487335e-05   0.0   -7.415816189459879e-05
4.9283606127487335e-05   0.0   -7.415816189459879e-05
6.325092892863745e-06   -2.75370626627095e-06   -9.08416077130251e-07
6.325092892863745e-06   -2.75370626627095e-06   -9.08416077130251e-07
6.325092892863745e-06   -2.75370626627095e-06   -9.08416077130251e-07
6.325092892863745e-06   -2.75370626627095e-06   -9.08416077130251e-07
2.7457130221706036e-05   -1.2907120784889974e-06   -3.700627480453654e-05
2.7457130221706036e-05   -1.2907120784889974e-06   -3.700627480453654e-05
2.7457130221706036e-05   -1.2907120784889974e-06   -3.700627480453654e-05
2.7457130221706036e-05   -1.2907120784889974e-06   -3.700627480453654e-05
6.325092892863745e-06   0.0   -7.250593813483622e-05
6.325092892863745e-06   0.0   -7.250593813483622e-05
6.325092892863745e-06   0.0   -7.250593813483622e-05
6.325092892863745e-06   0.0   -7.250593813483622e-05
4.928360612748725e-05   -2.7537062662709634e-06   -2.5606398368928216e-06
4.928360612748725e-05   -2.7537062662709634e-06   -2.5606398368928216e-06
4.928360612748725e-05   -2.7537062662709634e-06   -2.5606398368928216e-06
4.928360612748725e-05   -2.7537062662709634e-06   -2.5606398368928216e-06
5.023055713632229e-05   0.0   -7.127910561240503e-05
5.023055713632229e-05   0.0   -7.127910561240503e-05
5.023055713632229e-05   0.0   -7.127910561240503e-05
5.023055713632229e-05   0.0   -7.127910561240503e-05
7.261664879814411e-06   -5.785777573013044e-07   6.828614694888682e-07
7.261664879814411e-06   -5.785777573013044e-07   6.828614694888682e-07
7.261664879814411e-06   -5.785777573013044e-07   6.828614694888682e-07
7.261664879814411e-06   -5.785777573013044e-07   6.828614694888682e-07
2.827782501459302e-05   1.0223604353593252e-06   -3.530463500407181e-05
2.827782501459302e-05   1.0223604353593252e-06   -3.530463500407181e-05
2.827782501459302e-05   1.0223604353593252e-06   -3.530463500407181e-05
2.827782501459302e-05   1.0223604353593252e-06   -3.530463500407181e-05
4.942465396976368e-05   0.0   -7.483183007605107e-05
4.942465396976368e-05   0.0   -7.483183007605107e-05
4.942465396976368e-05   0.0   -7.483183007605107e-05
4.942465396976368e-05   0.0   -7.483183007605107e-05
0.0001115351701776566   -1.4689184772362905e-05   1.9872186073686423e-05
0.0001115351701776566   -1.4689184772362905e-05   1.9872186073686423e-05
0.0001115351701776566   -1.4689184772362905e-05   1.9872186073686423e-05
0.0001115351701776566   -1.4689184772362905e-05   1.9872186073686423e-05
0.00010473772147074833   0.0   -8.273429378856773e-05
0.00010473772147074833   0.0   -8.273429378856773e-05
0.00010473772147074833   0.0   -8.273429378856773e-05
0.00010473772147074833   0.0   -8.273429378856773e-05
4.950345281438214e-05   -1.2502958052629698e-05   1.6824595470286903e-05
4.950345281438214e-05   -1.2502958052629698e-05   1.6824595470286903e-05
4.950345281438214e-05   -1.2502958052629698e-05   1.6824595470286903e-05
4.950345281438214e-05   -1.2502958052629698e-05   1.6824595470286903e-05
7.708118772025601e-05   -6.5853864270972086e-06   -3.268883901482215e-05
7.708118772025601e-05   -6.5853864270972086e-06   -3.268883901482215e-05
7.708118772025601e-05   -6.5853864270972086e-06   -3.268883901482215e-05
7.708118772025601e-05   -6.5853864270972086e-06   -3.268883901482215e-05
4.9503452814382185e-05   0.0   -7.523251895698982e-05
4.9503452814382185e-05   0.0   -7.523251895698982e-05
4.9503452814382185e-05   0.0   -7.523251895698982e-05
4.9503452814382185e-05   0.0   -7.523251895698982e-05
0.00010473772147074833   -1.2502958052629725e-05   9.32282063870909e-06
0.00010473772147074833   -1.2502958052629725e-05   9.32282063870909e-06
0.00010473772147074833   -1.2502958052629725e-05   9.32282063870909e-06
0.00010473772147074833   -1.2502958052629725e-05   9.32282063870909e-06
0.00010159960908630514   0.0   -8.101411670468511e-05
0.00010159960908630514   0.0   -8.101411670468511e-05
0.00010159960908630514   0.0   -8.101411670468511e-05
0.00010159960908630514   0.0   -8.101411670468511e-05
4.928360612748725e-05   -1.1426591350143829e-05   1.3035176370097522e-05
4.928360612748725e-05   -1.1426591350143829e-05   1.3035176370097522e-05
4.928360612748725e-05   -1.1426591350143829e-05   1.3035176370097522e-05
4.928360612748725e-05   -1.1426591350143829e-05   1.3035176370097522e-05
7.555153095034364e-05   -4.81799812307935e-06   -3.4709854270901674e-05
7.555153095034364e-05   -4.81799812307935e-06   -3.4709854270901674e-05
7.555153095034364e-05   -4.81799812307935e-06   -3.4709854270901674e-05
7.555153095034364e-05   -4.81799812307935e-06   -3.4709854270901674e-05
4.9283606127487335e-05   0.0   -7.415816189459879e-05
4.9283606127487335e-05   0.0   -7.415816189459879e-05
4.9283606127487335e-05   0.0   -7.415816189459879e-05
4.9283606127487335e-05   0.0   -7.415816189459879e-05
0.00010159960908630497   -1.1426591350143829e-05   6.179221560011233e-06
0.00010159960908630497   -1.1426591350143829e-05   6.179221560011233e-06
0.00010159960908630497   -1.1426591350143829e-05   6.179221560011233e-06
0.00010159960908630497   -1.1426591350143829e-05   6.179221560011233e-06
9.693331556676532e-05   0.0   -7.661110353884189e-05
9.693331556676532e-05   0.0   -7.661110353884189e-05
9.693331556676532e-05   0.0   -7.661110353884189e-05
9.693331556676532e-05   0.0   -7.661110353884189e-05
5.023055713632216e-05   -8.886663210728099e-06   6.558825105000072e-06
5.023055713632216e-05   -8.886663210728099e-06   6.558825105000072e-06
5.023055713632216e-05   -8.886663210728099e-06   6.558825105000072e-06
5.023055713632216e-05   -8.886663210728099e-06   6.558825105000072e-06
7.31084608471262e-05   -2.0441180368692424e-06   -3.5676541517321925e-05
7.31084608471262e-05   -2.0441180368692424e-06   -3.5676541517321925e-05
7.31084608471262e-05   -2.0441180368692424e-06   -3.5676541517321925e-05
7.31084608471262e-05   -2.0441180368692424e-06   -3.5676541517321925e-05
-0.00010909722178395343   1.393286089295034e-05   -7.152449729581981e-05
-0.00010909722178395343   1.393286089295034e-05   -7.152449729581981e-05
-0.00010909722178395343   1.393286089295034e-05   -7.152449729581981e-05
-0.00010909722178395343   1.393286089295034e-05   -7.152449729581981e-05