<?xml version="1.0"?> 
<VTKFile type="UnstructuredGrid"> 
   <UnstructuredGrid> 
      <Piece NumberOfPoints="6000"  NumberOfCells="1500">  
          <Points>  
             <DataArray type="Float64" NumberOfComponents="3" format="ascii">   
-500.0   0.0   0.0
-450.0   0.0   0.0
-500.0   30.0   0.0
-500.0   0.0   16.666666666666668
-450.0   0.0   0.0
-450.0   30.0   0.0
-500.0   30.0   0.0
-450.0   30.0   16.666666666666668
-500.0   0.0   16.666666666666668
-500.0   30.0   16.666666666666668
-450.0   30.0   16.666666666666668
-500.0   30.0   0.0
-500.0   0.0   16.666666666666668
-450.0   30.0   16.666666666666668
-450.0   0.0   16.666666666666668
-450.0   0.0   0.0
-500.0   0.0   16.666666666666668
-450.0   30.0   16.666666666666668
-450.0   0.0   0.0
-500.0   30.0   0.0
-500.0   0.0   16.666666666666668
-450.0   0.0   16.666666666666668
-500.0   30.0   16.666666666666668
-500.0   0.0   33.333333333333336
-450.0   0.0   16.666666666666668
-450.0   30.0   16.666666666666668
-500.0   30.0   16.666666666666668
-450.0   30.0   33.333333333333336
-500.0   0.0   33.333333333333336
-500.0   30.0   33.333333333333336
-450.0   30.0   33.333333333333336
-500.0   30.0   16.666666666666668
-500.0   0.0   33.333333333333336
-450.0   30.0   33.333333333333336
-450.0   0.0   33.333333333333336
-450.0   0.0   16.666666666666668
-500.0   0.0   33.333333333333336
-450.0   30.0   33.333333333333336
-450.0   0.0   16.666666666666668
-500.0   30.0   16.666666666666668
-500.0   0.0   33.333333333333336
-450.0   0.0   33.333333333333336
-500.0   30.0   33.333333333333336
-500.0   0.0   50.0
-450.0   0.0   33.333333333333336
-450.0   30.0   33.333333333333336
-500.0   30.0   33.333333333333336
-450.0   30.0   50.0
-500.0   0.0   50.0
-500.0   30.0   50.0
-450.0   30.0   50.0
-500.0   30.0   33.333333333333336
-500.0   0.0   50.0
-450.0   30.0   50.0
-450.0   0.0   50.0
-450.0   0.0   33.333333333333336
-500.0   0.0   50.0
-450.0   30.0   50.0
-450.0   0.0   33.333333333333336
-500.0   30.0   33.333333333333336
-500.0   30.0   0.0
-450.0   30.0   0.0
-500.0   60.0   0.0
-500.0   30.0   16.666666666666668
-450.0   30.0   0.0
-450.0   60.0   0.0
-500.0   60.0   0.0
-450.0   60.0   16.666666666666668
-500.0   30.0   16.666666666666668
-500.0   60.0   16.666666666666668
-450.0   60.0   16.666666666666668
-500.0   60.0   0.0
-500.0   30.0   16.666666666666668
-450.0   60.0   16.666666666666668
-450.0   30.0   16.666666666666668
-450.0   30.0   0.0
-500.0   30.0   16.666666666666668
-450.0   60.0   16.666666666666668
-450.0   30.0   0.0
-500.0   60.0   0.0
-500.0   30.0   16.666666666666668
-450.0   30.0   16.666666666666668
-500.0   60.0   16.666666666666668
-500.0   30.0   33.333333333333336
-450.0   30.0   16.666666666666668
-450.0   60.0   16.666666666666668
-500.0   60.0   16.666666666666668
-450.0   60.0   33.333333333333336
-500.0   30.0   33.333333333333336
-500.0   60.0   33.333333333333336
-450.0   60.0   33.333333333333336
-500.0   60.0   16.666666666666668
-500.0   30.0   33.333333333333336
-450.0   60.0   33.333333333333336
-450.0   30.0   33.333333333333336
-450.0   30.0   16.666666666666668
-500.0   30.0   33.333333333333336
-450.0   60.0   33.333333333333336
-450.0   30.0   16.666666666666668
-500.0   60.0   16.666666666666668
-500.0   30.0   33.333333333333336
-450.0   30.0   33.333333333333336
-500.0   60.0   33.333333333333336
-500.0   30.0   50.0
-450.0   30.0   33.333333333333336
-450.0   60.0   33.333333333333336
-500.0   60.0   33.333333333333336
-450.0   60.0   50.0
-500.0   30.0   50.0
-500.0   60.0   50.0
-450.0   60.0   50.0
-500.0   60.0   33.333333333333336
-500.0   30.0   50.0
-450.0   60.0   50.0
-450.0   30.0   50.0
-450.0   30.0   33.333333333333336
-500.0   30.0   50.0
-450.0   60.0   50.0
-450.0   30.0   33.333333333333336
-500.0   60.0   33.333333333333336
-500.0   60.0   0.0
-450.0   60.0   0.0
-500.0   90.0   0.0
-500.0   60.0   16.666666666666668
-450.0   60.0   0.0
-450.0   90.0   0.0
-500.0   90.0   0.0
-450.0   90.0   16.666666666666668
-500.0   60.0   16.666666666666668
-500.0   90.0   16.666666666666668
-450.0   90.0   16.666666666666668
-500.0   90.0   0.0
-500.0   60.0   16.666666666666668
-450.0   90.0   16.666666666666668
-450.0   60.0   16.666666666666668
-450.0   60.0   0.0
-500.0   60.0   16.666666666666668
-450.0   90.0   16.666666666666668
-450.0   60.0   0.0
-500.0   90.0   0.0
-500.0   60.0   16.666666666666668
-450.0   60.0   16.666666666666668
-500.0   90.0   16.666666666666668
-500.0   60.0   33.333333333333336
-450.0   60.0   16.666666666666668
-450.0   90.0   16.666666666666668
-500.0   90.0   16.666666666666668
-450.0   90.0   33.333333333333336
-500.0   60.0   33.333333333333336
-500.0   90.0   33.333333333333336
-450.0   90.0   33.333333333333336
-500.0   90.0   16.666666666666668
-500.0   60.0   33.333333333333336
-450.0   90.0   33.333333333333336
-450.0   60.0   33.333333333333336
-450.0   60.0   16.666666666666668
-500.0   60.0   33.333333333333336
-450.0   90.0   33.333333333333336
-450.0   60.0   16.666666666666668
-500.0   90.0   16.666666666666668
-500.0   60.0   33.333333333333336
-450.0   60.0   33.333333333333336
-500.0   90.0   33.333333333333336
-500.0   60.0   50.0
-450.0   60.0   33.333333333333336
-450.0   90.0   33.333333333333336
-500.0   90.0   33.333333333333336
-450.0   90.0   50.0
-500.0   60.0   50.0
-500.0   90.0   50.0
-450.0   90.0   50.0
-500.0   90.0   33.333333333333336
-500.0   60.0   50.0
-450.0   90.0   50.0
-450.0   60.0   50.0
-450.0   60.0   33.333333333333336
-500.0   60.0   50.0
-450.0   90.0   50.0
-450.0   60.0   33.333333333333336
-500.0   90.0   33.333333333333336
-500.0   90.0   0.0
-450.0   90.0   0.0
-500.0   120.0   0.0
-500.0   90.0   16.666666666666668
-450.0   90.0   0.0
-450.0   120.0   0.0
-500.0   120.0   0.0
-450.0   120.0   16.666666666666668
-500.0   90.0   16.666666666666668
-500.0   120.0   16.666666666666668
-450.0   120.0   16.666666666666668
-500.0   120.0   0.0
-500.0   90.0   16.666666666666668
-450.0   120.0   16.666666666666668
-450.0   90.0   16.666666666666668
-450.0   90.0   0.0
-500.0   90.0   16.666666666666668
-450.0   120.0   16.666666666666668
-450.0   90.0   0.0
-500.0   120.0   0.0
-500.0   90.0   16.666666666666668
-450.0   90.0   16.666666666666668
-500.0   120.0   16.666666666666668
-500.0   90.0   33.333333333333336
-450.0   90.0   16.666666666666668
-450.0   120.0   16.666666666666668
-500.0   120.0   16.666666666666668
-450.0   120.0   33.333333333333336
-500.0   90.0   33.333333333333336
-500.0   120.0   33.333333333333336
-450.0   120.0   33.333333333333336
-500.0   120.0   16.666666666666668
-500.0   90.0   33.333333333333336
-450.0   120.0   33.333333333333336
-450.0   90.0   33.333333333333336
-450.0   90.0   16.666666666666668
-500.0   90.0   33.333333333333336
-450.0   120.0   33.333333333333336
-450.0   90.0   16.666666666666668
-500.0   120.0   16.666666666666668
-500.0   90.0   33.333333333333336
-450.0   90.0   33.333333333333336
-500.0   120.0   33.333333333333336
-500.0   90.0   50.0
-450.0   90.0   33.333333333333336
-450.0   120.0   33.333333333333336
-500.0   120.0   33.333333333333336
-450.0   120.0   50.0
-500.0   90.0   50.0
-500.0   120.0   50.0
-450.0   120.0   50.0
-500.0   120.0   33.333333333333336
-500.0   90.0   50.0
-450.0   120.0   50.0
-450.0   90.0   50.0
-450.0   90.0   33.333333333333336
-500.0   90.0   50.0
-450.0   120.0   50.0
-450.0   90.0   33.333333333333336
-500.0   120.0   33.333333333333336
-500.0   120.0   0.0
-450.0   120.0   0.0
-500.0   150.0   0.0
-500.0   120.0   16.666666666666668
-450.0   120.0   0.0
-450.0   150.0   0.0
-500.0   150.0   0.0
-450.0   150.0   16.666666666666668
-500.0   120.0   16.666666666666668
-500.0   150.0   16.666666666666668
-450.0   150.0   16.666666666666668
-500.0   150.0   0.0
-500.0   120.0   16.666666666666668
-450.0   150.0   16.666666666666668
-450.0   120.0   16.666666666666668
-450.0   120.0   0.0
-500.0   120.0   16.666666666666668
-450.0   150.0   16.666666666666668
-450.0   120.0   0.0
-500.0   150.0   0.0
-500.0   120.0   16.666666666666668
-450.0   120.0   16.666666666666668
-500.0   150.0   16.666666666666668
-500.0   120.0   33.333333333333336
-450.0   120.0   16.666666666666668
-450.0   150.0   16.666666666666668
-500.0   150.0   16.666666666666668
-450.0   150.0   33.333333333333336
-500.0   120.0   33.333333333333336
-500.0   150.0   33.333333333333336
-450.0   150.0   33.333333333333336
-500.0   150.0   16.666666666666668
-500.0   120.0   33.333333333333336
-450.0   150.0   33.333333333333336
-450.0   120.0   33.333333333333336
-450.0   120.0   16.666666666666668
-500.0   120.0   33.333333333333336
-450.0   150.0   33.333333333333336
-450.0   120.0   16.666666666666668
-500.0   150.0   16.666666666666668
-500.0   120.0   33.333333333333336
-450.0   120.0   33.333333333333336
-500.0   150.0   33.333333333333336
-500.0   120.0   50.0
-450.0   120.0   33.333333333333336
-450.0   150.0   33.333333333333336
-500.0   150.0   33.333333333333336
-450.0   150.0   50.0
-500.0   120.0   50.0
-500.0   150.0   50.0
-450.0   150.0   50.0
-500.0   150.0   33.333333333333336
-500.0   120.0   50.0
-450.0   150.0   50.0
-450.0   120.0   50.0
-450.0   120.0   33.333333333333336
-500.0   120.0   50.0
-450.0   150.0   50.0
-450.0   120.0   33.333333333333336
-500.0   150.0   33.333333333333336
-450.0   0.0   0.0
-400.0   0.0   0.0
-450.0   30.0   0.0
-450.0   0.0   16.666666666666668
-400.0   0.0   0.0
-400.0   30.0   0.0
-450.0   30.0   0.0
-400.0   30.0   16.666666666666668
-450.0   0.0   16.666666666666668
-450.0   30.0   16.666666666666668
-400.0   30.0   16.666666666666668
-450.0   30.0   0.0
-450.0   0.0   16.666666666666668
-400.0   30.0   16.666666666666668
-400.0   0.0   16.666666666666668
-400.0   0.0   0.0
-450.0   0.0   16.666666666666668
-400.0   30.0   16.666666666666668
-400.0   0.0   0.0
-450.0   30.0   0.0
-450.0   0.0   16.666666666666668
-400.0   0.0   16.666666666666668
-450.0   30.0   16.666666666666668
[...]
          <PointData>  
             <DataArray type="Float64" NumberOfComponents="3" Name="Strains" format="ascii">   
-0.00011314908742653464   0.0   -7.420835994026224e-05
-0.00011314908742653464   0.0   -7.420835994026224e-05
-0.00011314908742653464   0.0   -7.420835994026224e-05
-0.00011314908742653464   0.0   -7.420835994026224e-05
-7.200405950255848e-05   1.2541594093521598e-05   1.8916430558108162e-06
-7.200405950255848e-05   1.2541594093521598e-05   1.8916430558108162e-06
-7.200405950255848e-05   1.2541594093521598e-05   1.8916430558108162e-06
-7.200405950255848e-05   1.2541594093521598e-05   1.8916430558108162e-06
-7.058378904986941e-05   0.0   -7.003125786781074e-05
-7.058378904986941e-05   0.0   -7.003125786781074e-05
-7.058378904986941e-05   0.0   -7.003125786781074e-05
-7.058378904986941e-05   0.0   -7.003125786781074e-05
-0.00011842049591124082   1.5047285845797397e-05   6.68215393663464e-07
-0.00011842049591124082   1.5047285845797397e-05   6.68215393663464e-07
-0.00011842049591124082   1.5047285845797397e-05   6.68215393663464e-07
-0.00011842049591124082   1.5047285845797397e-05   6.68215393663464e-07
-9.186643823820186e-05   3.480918393709579e-06   -3.664872692348205e-05
-9.186643823820186e-05   3.480918393709579e-06   -3.664872692348205e-05
-9.186643823820186e-05   3.480918393709579e-06   -3.664872692348205e-05
-9.186643823820186e-05   3.480918393709579e-06   -3.664872692348205e-05
-0.00011842049591124102   0.0   -7.90596293752892e-05
-0.00011842049591124102   0.0   -7.90596293752892e-05
-0.00011842049591124102   0.0   -7.90596293752892e-05
-0.00011842049591124102   0.0   -7.90596293752892e-05
-7.058378904986941e-05   1.5047285845797424e-05   9.6965869011419e-06
-7.058378904986941e-05   1.5047285845797424e-05   9.6965869011419e-06
-7.058378904986941e-05   1.5047285845797424e-05   9.6965869011419e-06
-7.058378904986941e-05   1.5047285845797424e-05   9.6965869011419e-06
-7.078688856273885e-05   0.0   -7.174646460614574e-05
-7.078688856273885e-05   0.0   -7.174646460614574e-05
-7.078688856273885e-05   0.0   -7.174646460614574e-05
-7.078688856273885e-05   0.0   -7.174646460614574e-05
-0.00012212440946167516   1.612000872944127e-05   4.144064987750349e-06
-0.00012212440946167516   1.612000872944127e-05   4.144064987750349e-06
-0.00012212440946167516   1.612000872944127e-05   4.144064987750349e-06
-0.00012212440946167516   1.612000872944127e-05   4.144064987750349e-06
-9.460369223698978e-05   6.094303974286212e-06   -3.57083742002989e-05
-9.460369223698978e-05   6.094303974286212e-06   -3.57083742002989e-05
-9.460369223698978e-05   6.094303974286212e-06   -3.57083742002989e-05
-9.460369223698978e-05   6.094303974286212e-06   -3.57083742002989e-05
-0.00012212440946167535   0.0   -8.141846984381052e-05
-0.00012212440946167535   0.0   -8.141846984381052e-05
-0.00012212440946167535   0.0   -8.141846984381052e-05
-0.00012212440946167535   0.0   -8.141846984381052e-05
-7.078688856273872e-05   1.612000872944127e-05   1.3816070225415114e-05
-7.078688856273872e-05   1.612000872944127e-05   1.3816070225415114e-05
-7.078688856273872e-05   1.612000872944127e-05   1.3816070225415114e-05
-7.078688856273872e-05   1.612000872944127e-05   1.3816070225415114e-05
-7.075423645048897e-05   0.0   -7.218656714888961e-05
-7.075423645048897e-05   0.0   -7.218656714888961e-05
-7.075423645048897e-05   0.0   -7.218656714888961e-05
-7.075423645048897e-05   0.0   -7.218656714888961e-05
-0.0001300996496597852   1.8361214076088612e-05   1.5705726420951223e-05
-0.0001300996496597852   1.8361214076088612e-05   1.5705726420951223e-05
-0.0001300996496597852   1.8361214076088612e-05   1.5705726420951223e-05
-0.0001300996496597852   1.8361214076088612e-05   1.5705726420951223e-05
-9.6439322956082e-05   7.693252245767408e-06   -3.399404098702797e-05
-9.6439322956082e-05   7.693252245767408e-06   -3.399404098702797e-05
-9.6439322956082e-05   7.693252245767408e-06   -3.399404098702797e-05
-9.6439322956082e-05   7.693252245767408e-06   -3.399404098702797e-05
-7.200405950255861e-05   0.0   -6.668340348414927e-05
-7.200405950255861e-05   0.0   -6.668340348414927e-05
-7.200405950255861e-05   0.0   -6.668340348414927e-05
-7.200405950255861e-05   0.0   -6.668340348414927e-05
-3.2786365247071826e-05   4.601084256259202e-06   1.4400708287508232e-06
-3.2786365247071826e-05   4.601084256259202e-06   1.4400708287508232e-06
-3.2786365247071826e-05   4.601084256259202e-06   1.4400708287508232e-06
-3.2786365247071826e-05   4.601084256259202e-06   1.4400708287508232e-06
-3.1537400515517574e-05   0.0   -6.610229958983598e-05
-3.1537400515517574e-05   0.0   -6.610229958983598e-05
-3.1537400515517574e-05   0.0   -6.610229958983598e-05
-3.1537400515517574e-05   0.0   -6.610229958983598e-05
-7.058378904986941e-05   6.548263796624416e-06   -4.9539436438911135e-06
-7.058378904986941e-05   6.548263796624416e-06   -4.9539436438911135e-06
-7.058378904986941e-05   6.548263796624416e-06   -4.9539436438911135e-06
-7.058378904986941e-05   6.548263796624416e-06   -4.9539436438911135e-06
-5.177073000903803e-05   4.842532452609813e-07   -3.267063571445846e-05
-5.177073000903803e-05   4.842532452609813e-07   -3.267063571445846e-05
-5.177073000903803e-05   4.842532452609813e-07   -3.267063571445846e-05
-5.177073000903803e-05   4.842532452609813e-07   -3.267063571445846e-05
-7.058378904986935e-05   0.0   -7.003125786781069e-05
-7.058378904986935e-05   0.0   -7.003125786781069e-05
-7.058378904986935e-05   0.0   -7.003125786781069e-05
-7.058378904986935e-05   0.0   -7.003125786781069e-05
-3.1537400515517574e-05   6.548263796624402e-06   -1.0249853659164614e-06
-3.1537400515517574e-05   6.548263796624402e-06   -1.0249853659164614e-06
-3.1537400515517574e-05   6.548263796624402e-06   -1.0249853659164614e-06
-3.1537400515517574e-05   6.548263796624402e-06   -1.0249853659164614e-06
-3.0837595218995805e-05   0.0   -6.693289741484608e-05
-3.0837595218995805e-05   0.0   -6.693289741484608e-05
-3.0837595218995805e-05   0.0   -6.693289741484608e-05
-3.0837595218995805e-05   0.0   -6.693289741484608e-05
-7.078688856273885e-05   8.022611985499222e-06   -5.164309033240777e-06
-7.078688856273885e-05   8.022611985499222e-06   -5.164309033240777e-06
-7.078688856273885e-05   8.022611985499222e-06   -5.164309033240777e-06
-7.078688856273885e-05   8.022611985499222e-06   -5.164309033240777e-06
-5.071069213443262e-05   2.581967044137125e-06   -3.53602494489338e-05
-5.071069213443262e-05   2.581967044137125e-06   -3.53602494489338e-05
-5.071069213443262e-05   2.581967044137125e-06   -3.53602494489338e-05
-5.071069213443262e-05   2.581967044137125e-06   -3.53602494489338e-05
-7.078688856273885e-05   0.0   -7.174646460614574e-05
-7.078688856273885e-05   0.0   -7.174646460614574e-05
-7.078688856273885e-05   0.0   -7.174646460614574e-05
-7.078688856273885e-05   0.0   -7.174646460614574e-05
-3.083759521899586e-05   8.022611985499222e-06   -3.50741841941231e-07
-3.083759521899586e-05   8.022611985499222e-06   -3.50741841941231e-07
-3.083759521899586e-05   8.022611985499222e-06   -3.50741841941231e-07
-3.083759521899586e-05   8.022611985499222e-06   -3.50741841941231e-07
-3.0201035189149335e-05   0.0   -6.658599500318755e-05
-3.0201035189149335e-05   0.0   -6.658599500318755e-05
-3.0201035189149335e-05   0.0   -6.658599500318755e-05
-3.0201035189149335e-05   0.0   -6.658599500318755e-05
-7.075423645048878e-05   9.33428690950332e-06   -4.597898379990202e-06
-7.075423645048878e-05   9.33428690950332e-06   -4.597898379990202e-06
-7.075423645048878e-05   9.33428690950332e-06   -4.597898379990202e-06
-7.075423645048878e-05   9.33428690950332e-06   -4.597898379990202e-06
-5.049396187594407e-05   4.300391335798439e-06   -3.5344685326675386e-05
-5.049396187594407e-05   4.300391335798439e-06   -3.5344685326675386e-05
-5.049396187594407e-05   4.300391335798439e-06   -3.5344685326675386e-05
-5.049396187594407e-05   4.300391335798439e-06   -3.5344685326675386e-05
-3.278636524707188e-05   0.0   -6.392275293039375e-05
-3.278636524707188e-05   0.0   -6.392275293039375e-05
-3.278636524707188e-05   0.0   -6.392275293039375e-05
-3.278636524707188e-05   0.0   -6.392275293039375e-05
4.27044190677422e-06   -5.884724769177264e-07   -2.514491160134157e-06
4.27044190677422e-06   -5.884724769177264e-07   -2.514491160134157e-06
4.27044190677422e-06   -5.884724769177264e-07   -2.514491160134157e-06
4.27044190677422e-06   -5.884724769177264e-07   -2.514491160134157e-06
5.065780927413691e-06   0.0   -6.540601310509512e-05
5.065780927413691e-06   0.0   -6.540601310509512e-05
5.065780927413691e-06   0.0   -6.540601310509512e-05
5.065780927413691e-06   0.0   -6.540601310509512e-05
-3.1537400515517574e-05   1.1604774745679224e-06   -5.096997184950532e-06
-3.1537400515517574e-05   1.1604774745679224e-06   -5.096997184950532e-06
-3.1537400515517574e-05   1.1604774745679224e-06   -5.096997184950532e-06
-3.1537400515517574e-05   1.1604774745679224e-06   -5.096997184950532e-06
-1.3860292159829064e-05   -1.2360501455846584e-06   -3.312092787233981e-05
-1.3860292159829064e-05   -1.2360501455846584e-06   -3.312092787233981e-05
-1.3860292159829064e-05   -1.2360501455846584e-06   -3.312092787233981e-05
-1.3860292159829064e-05   -1.2360501455846584e-06   -3.312092787233981e-05
-3.153740051551763e-05   0.0   -6.610229958983609e-05
-3.153740051551763e-05   0.0   -6.610229958983609e-05
-3.153740051551763e-05   0.0   -6.610229958983609e-05
-3.153740051551763e-05   0.0   -6.610229958983609e-05
5.065780927413699e-06   1.1604774745679224e-06   -4.400710700209783e-06
5.065780927413699e-06   1.1604774745679224e-06   -4.400710700209783e-06
5.065780927413699e-06   1.1604774745679224e-06   -4.400710700209783e-06
5.065780927413699e-06   1.1604774745679224e-06   -4.400710700209783e-06
5.692978815545999e-06   0.0   -6.531275023971427e-05
5.692978815545999e-06   0.0   -6.531275023971427e-05
5.692978815545999e-06   0.0   -6.531275023971427e-05
5.692978815545999e-06   0.0   -6.531275023971427e-05
-3.083759521899575e-05   2.7002452918863557e-06   -6.048607357276418e-06
-3.083759521899575e-05   2.7002452918863557e-06   -6.048607357276418e-06
-3.083759521899575e-05   2.7002452918863557e-06   -6.048607357276418e-06
-3.083759521899575e-05   2.7002452918863557e-06   -6.048607357276418e-06
-1.2922210849985788e-05   6.579577917681015e-07   -3.468220880555546e-05
-1.2922210849985788e-05   6.579577917681015e-07   -3.468220880555546e-05
-1.2922210849985788e-05   6.579577917681015e-07   -3.468220880555546e-05
-1.2922210849985788e-05   6.579577917681015e-07   -3.468220880555546e-05
-3.083759521899586e-05   0.0   -6.69328974148462e-05
-3.083759521899586e-05   0.0   -6.69328974148462e-05
-3.083759521899586e-05   0.0   -6.69328974148462e-05
-3.083759521899586e-05   0.0   -6.69328974148462e-05
5.692978815546008e-06   2.7002452918863692e-06   -4.428460182144614e-06
5.692978815546008e-06   2.7002452918863692e-06   -4.428460182144614e-06
5.692978815546008e-06   2.7002452918863692e-06   -4.428460182144614e-06
5.692978815546008e-06   2.7002452918863692e-06   -4.428460182144614e-06
6.53821791813546e-06   0.0   -6.389563754402796e-05
6.53821791813546e-06   0.0   -6.389563754402796e-05
6.53821791813546e-06   0.0   -6.389563754402796e-05
6.53821791813546e-06   0.0   -6.389563754402796e-05
-3.020103518914931e-05   4.4839290985992486e-06   -5.353906491046222e-06
-3.020103518914931e-05   4.4839290985992486e-06   -5.353906491046222e-06
-3.020103518914931e-05   4.4839290985992486e-06   -5.353906491046222e-06
-3.020103518914931e-05   4.4839290985992486e-06   -5.353906491046222e-06
-1.2149688650430173e-05   2.531049892348445e-06   -3.426775653182761e-05
-1.2149688650430173e-05   2.531049892348445e-06   -3.426775653182761e-05
-1.2149688650430173e-05   2.531049892348445e-06   -3.426775653182761e-05
-1.2149688650430173e-05   2.531049892348445e-06   -3.426775653182761e-05
4.270441906774228e-06   0.0   -6.427583641654439e-05
4.270441906774228e-06   0.0   -6.427583641654439e-05
4.270441906774228e-06   0.0   -6.427583641654439e-05
4.270441906774228e-06   0.0   -6.427583641654439e-05
4.4491607614357054e-05   -5.218389841634631e-06   -3.715941422201643e-07
4.4491607614357054e-05   -5.218389841634631e-06   -3.715941422201643e-07
4.4491607614357054e-05   -5.218389841634631e-06   -3.715941422201643e-07
4.4491607614357054e-05   -5.218389841634631e-06   -3.715941422201643e-07
4.456496529891665e-05   0.0   -6.776708171274146e-05
4.456496529891665e-05   0.0   -6.776708171274146e-05
4.456496529891665e-05   0.0   -6.776708171274146e-05
4.456496529891665e-05   0.0   -6.776708171274146e-05
5.065780927413699e-06   -3.93511434607686e-06   4.2596084740954613e-07
5.065780927413699e-06   -3.93511434607686e-06   4.2596084740954613e-07
5.065780927413699e-06   -3.93511434607686e-06   4.2596084740954613e-07
5.065780927413699e-06   -3.93511434607686e-06   4.2596084740954613e-07
2.4417703602845437e-05   -2.909371080164225e-06   -3.2442689571190885e-05
2.4417703602845437e-05   -2.909371080164225e-06   -3.2442689571190885e-05
2.4417703602845437e-05   -2.909371080164225e-06   -3.2442689571190885e-05
2.4417703602845437e-05   -2.909371080164225e-06   -3.2442689571190885e-05
5.065780927413708e-06   0.0   -6.540601310509534e-05
5.065780927413708e-06   0.0   -6.540601310509534e-05
5.065780927413708e-06   0.0   -6.540601310509534e-05
5.065780927413708e-06   0.0   -6.540601310509534e-05
4.456496529891657e-05   -3.93511434607686e-06   -1.9351077602365667e-06
4.456496529891657e-05   -3.93511434607686e-06   -1.9351077602365667e-06
4.456496529891657e-05   -3.93511434607686e-06   -1.9351077602365667e-06
4.456496529891657e-05   -3.93511434607686e-06   -1.9351077602365667e-06
4.436913970831834e-05   0.0   -6.679935213656347e-05
4.436913970831834e-05   0.0   -6.679935213656347e-05
4.436913970831834e-05   0.0   -6.679935213656347e-05
4.436913970831834e-05   0.0   -6.679935213656347e-05
5.692978815546008e-06   -2.4776698280818186e-06   -8.524820850938411e-07
5.692978815546008e-06   -2.4776698280818186e-06   -8.524820850938411e-07
5.692978815546008e-06   -2.4776698280818186e-06   -8.524820850938411e-07
5.692978815546008e-06   -2.4776698280818186e-06   -8.524820850938411e-07
2.4717460317866026e-05   -1.1611158595567757e-06   -3.334988363674219e-05
2.4717460317866026e-05   -1.1611158595567757e-06   -3.334988363674219e-05
2.4717460317866026e-05   -1.1611158595567757e-06   -3.334988363674219e-05
2.4717460317866026e-05   -1.1611158595567757e-06   -3.334988363674219e-05
5.692978815546008e-06   0.0   -6.531275023971438e-05
5.692978815546008e-06   0.0   -6.531275023971438e-05
5.692978815546008e-06   0.0   -6.531275023971438e-05
5.692978815546008e-06   0.0   -6.531275023971438e-05
4.4369139708318266e-05   -2.4776698280818186e-06   -2.33908398194292e-06
4.4369139708318266e-05   -2.4776698280818186e-06   -2.33908398194292e-06
4.4369139708318266e-05   -2.4776698280818186e-06   -2.33908398194292e-06
4.4369139708318266e-05   -2.4776698280818186e-06   -2.33908398194292e-06
4.522367023924137e-05   0.0   -6.420697006960397e-05
4.522367023924137e-05   0.0   -6.420697006960397e-05
4.522367023924137e-05   0.0   -6.420697006960397e-05
4.522367023924137e-05   0.0   -6.420697006960397e-05
6.538217918135471e-06   -5.188875426265081e-07   5.801163244817509e-07
6.538217918135471e-06   -5.188875426265081e-07   5.801163244817509e-07
6.538217918135471e-06   -5.188875426265081e-07   5.801163244817509e-07
6.538217918135471e-06   -5.188875426265081e-07   5.801163244817509e-07
2.545832452739369e-05   9.214834750920063e-07   -3.181761730157968e-05
2.545832452739369e-05   9.214834750920063e-07   -3.181761730157968e-05
2.545832452739369e-05   9.214834750920063e-07   -3.181761730157968e-05
2.545832452739369e-05   9.214834750920063e-07   -3.181761730157968e-05
4.449160761435721e-05   0.0   -6.740687032152517e-05
4.449160761435721e-05   0.0   -6.740687032152517e-05
4.449160761435721e-05   0.0   -6.740687032152517e-05
4.449160761435721e-05   0.0   -6.740687032152517e-05
0.00010041572391739214   -1.3224721959967782e-05   1.7865157007552703e-05
0.00010041572391739214   -1.3224721959967782e-05   1.7865157007552703e-05
0.00010041572391739214   -1.3224721959967782e-05   1.7865157007552703e-05
0.00010041572391739214   -1.3224721959967782e-05   1.7865157007552703e-05
9.42990932338509e-05   0.0   -7.452018616349458e-05
9.42990932338509e-05   0.0   -7.452018616349458e-05
9.42990932338509e-05   0.0   -7.452018616349458e-05
9.42990932338509e-05   0.0   -7.452018616349458e-05
4.456496529891657e-05   -1.1255174084588528e-05   1.5123131512148906e-05
4.456496529891657e-05   -1.1255174084588528e-05   1.5123131512148906e-05
4.456496529891657e-05   -1.1255174084588528e-05   1.5123131512148906e-05
4.456496529891657e-05   -1.1255174084588528e-05   1.5123131512148906e-05
6.939535042410405e-05   -5.9277632016411735e-06   -2.945729022626512e-05
6.939535042410405e-05   -5.9277632016411735e-06   -2.945729022626512e-05
6.939535042410405e-05   -5.9277632016411735e-06   -2.945729022626512e-05
6.939535042410405e-05   -5.9277632016411735e-06   -2.945729022626512e-05
4.456496529891661e-05   0.0   -6.776708171274141e-05
4.456496529891661e-05   0.0   -6.776708171274141e-05
4.456496529891661e-05   0.0   -6.776708171274141e-05
4.456496529891661e-05   0.0   -6.776708171274141e-05
9.42990932338509e-05   -1.1255174084588541e-05   8.370027061395797e-06
9.42990932338509e-05   -1.1255174084588541e-05   8.370027061395797e-06
9.42990932338509e-05   -1.1255174084588541e-05   8.370027061395797e-06
9.42990932338509e-05   -1.1255174084588541e-05   8.370027061395797e-06
9.14762297343406e-05   0.0   -7.297081633631017e-05
9.14762297343406e-05   0.0   -7.297081633631017e-05
9.14762297343406e-05   0.0   -7.297081633631017e-05
9.14762297343406e-05   0.0   -7.297081633631017e-05
4.4369139708318266e-05   -1.0285773666244473e-05   1.171246457347363e-05
4.4369139708318266e-05   -1.0285773666244473e-05   1.171246457347363e-05
4.4369139708318266e-05   -1.0285773666244473e-05   1.171246457347363e-05
4.4369139708318266e-05   -1.0285773666244473e-05   1.171246457347363e-05
6.802059751662859e-05   -4.336445519640596e-06   -3.1276228661672445e-05
6.802059751662859e-05   -4.336445519640596e-06   -3.1276228661672445e-05
6.802059751662859e-05   -4.336445519640596e-06   -3.1276228661672445e-05
6.802059751662859e-05   -4.336445519640596e-06   -3.1276228661672445e-05
4.436913970831834e-05   0.0   -6.679935213656347e-05
4.436913970831834e-05   0.0   -6.679935213656347e-05
4.436913970831834e-05   0.0   -6.679935213656347e-05
4.436913970831834e-05   0.0   -6.679935213656347e-05
9.147622973434045e-05   -1.0285773666244473e-05   5.541000373726949e-06
9.147622973434045e-05   -1.0285773666244473e-05   5.541000373726949e-06
9.147622973434045e-05   -1.0285773666244473e-05   5.541000373726949e-06
9.147622973434045e-05   -1.0285773666244473e-05   5.541000373726949e-06
8.727724697418279e-05   0.0   -6.900572477574869e-05
8.727724697418279e-05   0.0   -6.900572477574869e-05
8.727724697418279e-05   0.0   -6.900572477574869e-05
8.727724697418279e-05   0.0   -6.900572477574869e-05
4.522367023924125e-05   -7.997924510241188e-06   5.882324488631761e-06
4.522367023924125e-05   -7.997924510241188e-06   5.882324488631761e-06
4.522367023924125e-05   -7.997924510241188e-06   5.882324488631761e-06
4.522367023924125e-05   -7.997924510241188e-06   5.882324488631761e-06
6.582319334125045e-05   -1.8386438659876784e-06   -3.214578240126895e-05
6.582319334125045e-05   -1.8386438659876784e-06   -3.214578240126895e-05
6.582319334125045e-05   -1.8386438659876784e-06   -3.214578240126895e-05
6.582319334125045e-05   -1.8386438659876784e-06   -3.214578240126895e-05
-9.821110394649788e-05   1.2541594093521564e-05   -6.44048640249535e-05
-9.821110394649788e-05   1.2541594093521564e-05   -6.44048640249535e-05
-9.821110394649788e-05   1.2541594093521564e-05   -6.44048640249535e-05
-9.821110394649788e-05   1.2541594093521564e-05   -6.44048640249535e-05
-6.289997666028534e-05   1.1280752619664575e-05   -6.309490098913462e-06