<?xml version="1.0"?> 
<VTKFile type="UnstructuredGrid"> 
   <UnstructuredGrid> 
      <Piece NumberOfPoints="6000"  NumberOfCells="1500">  
          <Points>  
             <DataArray type="Float64" NumberOfComponents="3" format="ascii">   
-500.0   0.0   0.0
-450.0   0.0   0.0
-500.0   30.0   0.0
-500.0   0.0   16.666666666666668
-450.0   0.0   0.0
-450.0   30.0   0.0
-500.0   30.0   0.0
-450.0   30.0   16.666666666666668
-500.0   0.0   16.666666666666668
-500.0   30.0   16.666666666666668
-450.0   30.0   16.666666666666668
-500.0   30.0   0.0
-500.0   0.0   16.666666666666668
-450.0   30.0   16.666666666666668
-450.0   0.0   16.666666666666668
-450.0   0.0   0.0
-500.0   0.0   16.666666666666668
-450.0   30.0   16.666666666666668
-450.0   0.0   0.0
-500.0   30.0   0.0
-500.0   0.0   16.666666666666668
-450.0   0.0   16.666666666666668
-500.0   30.0   16.666666666666668
-500.0   0.0   33.333333333333336
-450.0   0.0   16.666666666666668
-450.0   30.0   16.666666666666668
-500.0   30.0   16.666666666666668
-450.0   30.0   33.333333333333336
-500.0   0.0   33.333333333333336
-500.0   30.0   33.333333333333336
-450.0   30.0   33.333333333333336
-500.0   30.0   16.666666666666668
-500.0   0.0   33.333333333333336
-450.0   30.0   33.333333333333336
-450.0   0.0   33.333333333333336
-450.0   0.0   16.666666666666668
-500.0   0.0   33.333333333333336
-450.0   30.0   33.333333333333336
-450.0   0.0   16.666666666666668
-500.0   30.0   16.666666666666668
-500.0   0.0   33.333333333333336
-450.0   0.0   33.333333333333336
-500.0   30.0   33.333333333333336
-500.0   0.0   50.0
-450.0   0.0   33.333333333333336
-450.0   30.0   33.333333333333336
-500.0   30.0   33.333333333333336
-450.0   30.0   50.0
-500.0   0.0   50.0
-500.0   30.0   50.0
-450.0   30.0   50.0
-500.0   30.0   33.333333333333336
-500.0   0.0   50.0
-450.0   30.0   50.0
-450.0   0.0   50.0
-450.0   0.0   33.333333333333336
-500.0   0.0   50.0
-450.0   30.0   50.0
-450.0   0.0   33.333333333333336
-500.0   30.0   33.333333333333336
-500.0   30.0   0.0
-450.0   30.0   0.0
-500.0   60.0   0.0
-500.0   30.0   16.666666666666668
-450.0   30.0   0.0
-450.0   60.0   0.0
-500.0   60.0   0.0
-450.0   60.0   16.666666666666668
-500.0   30.0   16.666666666666668
-500.0   60.0   16.666666666666668
-450.0   60.0   16.666666666666668
-500.0   60.0   0.0
-500.0   30.0   16.666666666666668
-450.0   60.0   16.666666666666668
-450.0   30.0   16.666666666666668
-450.0   30.0   0.0
-500.0   30.0   16.666666666666668
-450.0   60.0   16.666666666666668
-450.0   30.0   0.0
-500.0   60.0   0.0
-500.0   30.0   16.666666666666668
-450.0   30.0   16.666666666666668
-500.0   60.0   16.666666666666668
-500.0   30.0   33.333333333333336
-450.0   30.0   16.666666666666668
-450.0   60.0   16.666666666666668
-500.0   60.0   16.666666666666668
-450.0   60.0   33.333333333333336
-500.0   30.0   33.333333333333336
-500.0   60.0   33.333333333333336
-450.0   60.0   33.333333333333336
-500.0   60.0   16.666666666666668
-500.0   30.0   33.333333333333336
-450.0   60.0   33.333333333333336
-450.0   30.0   33.333333333333336
-450.0   30.0   16.666666666666668
-500.0   30.0   33.333333333333336
-450.0   60.0   33.333333333333336
-450.0   30.0   16.666666666666668
-500.0   60.0   16.666666666666668
-500.0   30.0   33.333333333333336
-450.0   30.0   33.333333333333336
-500.0   60.0   33.333333333333336
-500.0   30.0   50.0
-450.0   30.0   33.333333333333336
-450.0   60.0   33.333333333333336
-500.0   60.0   33.333333333333336
-450.0   60.0   50.0
-500.0   30.0   50.0
-500.0   60.0   50.0
-450.0   60.0   50.0
-500.0   60.0   33.333333333333336
-500.0   30.0   50.0
-450.0   60.0   50.0
-450.0   30.0   50.0
-450.0   30.0   33.333333333333336
-500.0   30.0   50.0
-450.0   60.0   50.0
-450.0   30.0   33.333333333333336
-500.0   60.0   33.333333333333336
-500.0   60.0   0.0
-450.0   60.0   0.0
-500.0   90.0   0.0
-500.0   60.0   16.666666666666668
-450.0   60.0   0.0
-450.0   90.0   0.0
-500.0   90.0   0.0
-450.0   90.0   16.666666666666668
-500.0   60.0   16.666666666666668
-500.0   90.0   16.666666666666668
-450.0   90.0   16.666666666666668
-500.0   90.0   0.0
-500.0   60.0   16.666666666666668
-450.0   90.0   16.666666666666668
-450.0   60.0   16.666666666666668
-450.0   60.0   0.0
-500.0   60.0   16.666666666666668
-450.0   90.0   16.666666666666668
-450.0   60.0   0.0
-500.0   90.0   0.0
-500.0   60.0   16.666666666666668
-450.0   60.0   16.666666666666668
-500.0   90.0   16.666666666666668
-500.0   60.0   33.333333333333336
-450.0   60.0   16.666666666666668
-450.0   90.0   16.666666666666668
-500.0   90.0   16.666666666666668
-450.0   90.0   33.333333333333336
-500.0   60.0   33.333333333333336
-500.0   90.0   33.333333333333336
-450.0   90.0   33.333333333333336
-500.0   90.0   16.666666666666668
-500.0   60.0   33.333333333333336
-450.0   90.0   33.333333333333336
-450.0   60.0   33.333333333333336
-450.0   60.0   16.666666666666668
-500.0   60.0   33.333333333333336
-450.0   90.0   33.333333333333336
-450.0   60.0   16.666666666666668
-500.0   90.0   16.666666666666668
-500.0   60.0   33.333333333333336
-450.0   60.0   33.333333333333336
-500.0   90.0   33.333333333333336
-500.0   60.0   50.0
-450.0   60.0   33.333333333333336
-450.0   90.0   33.333333333333336
-500.0   90.0   33.333333333333336
-450.0   90.0   50.0
-500.0   60.0   50.0
-500.0   90.0   50.0
-450.0   90.0   50.0
-500.0   90.0   33.333333333333336
-500.0   60.0   50.0
-450.0   90.0   50.0
-450.0   60.0   50.0
-450.0   60.0   33.333333333333336
-500.0   60.0   50.0
-450.0   90.0   50.0
-450.0   60.0   33.333333333333336
-500.0   90.0   33.333333333333336
-500.0   90.0   0.0
-450.0   90.0   0.0
-500.0   120.0   0.0
-500.0   90.0   16.666666666666668
-450.0   90.0   0.0
-450.0   120.0   0.0
-500.0   120.0   0.0
-450.0   120.0   16.666666666666668
-500.0   90.0   16.666666666666668
-500.0   120.0   16.666666666666668
-450.0   120.0   16.666666666666668
-500.0   120.0   0.0
-500.0   90.0   16.666666666666668
-450.0   120.0   16.666666666666668
-450.0   90.0   16.666666666666668
-450.0   90.0   0.0
-500.0   90.0   16.666666666666668
-450.0   120.0   16.666666666666668
-450.0   90.0   0.0
-500.0   120.0   0.0
-500.0   90.0   16.666666666666668
-450.0   90.0   16.666666666666668
-500.0   120.0   16.666666666666668
-500.0   90.0   33.333333333333336
-450.0   90.0   16.666666666666668
-450.0   120.0   16.666666666666668
-500.0   120.0   16.666666666666668
-450.0   120.0   33.333333333333336
-500.0   90.0   33.333333333333336
-500.0   120.0   33.333333333333336
-450.0   120.0   33.333333333333336
-500.0   120.0   16.666666666666668
-500.0   90.0   33.333333333333336
-450.0   120.0   33.333333333333336
-450.0   90.0   33.333333333333336
-450.0   90.0   16.666666666666668
-500.0   90.0   33.333333333333336
-450.0   120.0   33.333333333333336
-450.0   90.0   16.666666666666668
-500.0   120.0   16.666666666666668
-500.0   90.0   33.333333333333336
-450.0   90.0   33.333333333333336
-500.0   120.0   33.333333333333336
-500.0   90.0   50.0
-450.0   90.0   33.333333333333336
-450.0   120.0   33.333333333333336
-500.0   120.0   33.333333333333336
-450.0   120.0   50.0
-500.0   90.0   50.0
-500.0   120.0   50.0
-450.0   120.0   50.0
-500.0   120.0   33.333333333333336
-500.0   90.0   50.0
-450.0   120.0   50.0
-450.0   90.0   50.0
-450.0   90.0   33.333333333333336
-500.0   90.0   50.0
-450.0   120.0   50.0
-450.0   90.0   33.333333333333336
-500.0   120.0   33.333333333333336
-500.0   120.0   0.0
-450.0   120.0   0.0
-500.0   150.0   0.0
-500.0   120.0   16.666666666666668
-450.0   120.0   0.0
-450.0   150.0   0.0
-500.0   150.0   0.0
-450.0   150.0   16.666666666666668
-500.0   120.0   16.666666666666668
-500.0   150.0   16.666666666666668
-450.0   150.0   16.666666666666668
-500.0   150.0   0.0
-500.0   120.0   16.666666666666668
-450.0   150.0   16.666666666666668
-450.0   120.0   16.666666666666668
-450.0   120.0   0.0
-500.0   120.0   16.666666666666668
-450.0   150.0   16.666666666666668
-450.0   120.0   0.0
-500.0   150.0   0.0
-500.0   120.0   16.666666666666668
-450.0   120.0   16.666666666666668
-500.0   150.0   16.666666666666668
-500.0   120.0   33.333333333333336
-450.0   120.0   16.666666666666668
-450.0   150.0   16.666666666666668
-500.0   150.0   16.666666666666668
-450.0   150.0   33.333333333333336
-500.0   120.0   33.333333333333336
-500.0   150.0   33.333333333333336
-450.0   150.0   33.333333333333336
-500.0   150.0   16.666666666666668
-500.0   120.0   33.333333333333336
-450.0   150.0   33.333333333333336
-450.0   120.0   33.333333333333336
-450.0   120.0   16.666666666666668
-500.0   120.0   33.333333333333336
-450.0   150.0   33.333333333333336
-450.0   120.0   16.666666666666668
-500.0   150.0   16.666666666666668
-500.0   120.0   33.333333333333336
-450.0   120.0   33.333333333333336
-500.0   150.0   33.333333333333336
-500.0   120.0   50.0
-450.0   120.0   33.333333333333336
-450.0   150.0   33.333333333333336
-500.0   150.0   33.333333333333336
-450.0   150.0   50.0
-500.0   120.0   50.0
-500.0   150.0   50.0
-450.0   150.0   50.0
-500.0   150.0   33.333333333333336
-500.0   120.0   50.0
-450.0   150.0   50.0
-450.0   120.0   50.0
-450.0   120.0   33.333333333333336
-500.0   120.0   50.0
-450.0   150.0   50.0
-450.0   120.0   33.333333333333336
-500.0   150.0   33.333333333333336
-450.0   0.0   0.0
-400.0   0.0   0.0
-450.0   30.0   0.0
-450.0   0.0   16.666666666666668
-400.0   0.0   0.0
-400.0   30.0   0.0
-450.0   30.0   0.0
-400.0   30.0   16.666666666666668
-450.0   0.0   16.666666666666668
-450.0   30.0   16.666666666666668
-400.0   30.0   16.666666666666668
-450.0   30.0   0.0
-450.0   0.0   16.666666666666668
-400.0   30.0   16.666666666666668
-400.0   0.0   16.666666666666668
-400.0   0.0   0.0
-450.0   0.0   16.666666666666668
-400.0   30.0   16.666666666666668
-400.0   0.0   0.0
-450.0   30.0   0.0
-450.0   0.0   16.666666666666668
-400.0   0.0   16.666666666666668
-450.0   30.0   16.666666666666668
[...]
          <PointData>  
             <DataArray type="Float64" NumberOfComponents="3" Name="Strains" format="ascii">   
-3.80459484654246e-05   0.0   -2.512614045984843e-05
-3.80459484654246e-05   0.0   -2.512614045984843e-05
-3.80459484654246e-05   0.0   -2.512614045984843e-05
-3.80459484654246e-05   0.0   -2.512614045984843e-05
-2.419389159319482e-05   4.193993296948957e-06   4.770169720371881e-07
-2.419389159319482e-05   4.193993296948957e-06   4.770169720371881e-07
-2.419389159319482e-05   4.193993296948957e-06   4.770169720371881e-07
-2.419389159319482e-05   4.193993296948957e-06   4.770169720371881e-07
-2.3704772803600578e-05   0.0   -2.3734733555817005e-05
-2.3704772803600578e-05   0.0   -2.3734733555817005e-05
-2.3704772803600578e-05   0.0   -2.3734733555817005e-05
-2.3704772803600578e-05   0.0   -2.3734733555817005e-05
-3.9803725816604625e-05   5.042914426638959e-06   7.110614320646766e-08
-3.9803725816604625e-05   5.042914426638959e-06   7.110614320646766e-08
-3.9803725816604625e-05   5.042914426638959e-06   7.110614320646766e-08
-3.9803725816604625e-05   5.042914426638959e-06   7.110614320646766e-08
-3.087536063451253e-05   1.1595057533595211e-06   -1.2479457289646e-05
-3.087536063451253e-05   1.1595057533595211e-06   -1.2479457289646e-05
-3.087536063451253e-05   1.1595057533595211e-06   -1.2479457289646e-05
-3.087536063451253e-05   1.1595057533595211e-06   -1.2479457289646e-05
-3.980372581660469e-05   0.0   -2.6760482211800385e-05
-3.980372581660469e-05   0.0   -2.6760482211800385e-05
-3.980372581660469e-05   0.0   -2.6760482211800385e-05
-3.980372581660469e-05   0.0   -2.6760482211800385e-05
-2.3704772803600578e-05   5.042914426638973e-06   3.096854799189858e-06
-2.3704772803600578e-05   5.042914426638973e-06   3.096854799189858e-06
-2.3704772803600578e-05   5.042914426638973e-06   3.096854799189858e-06
-2.3704772803600578e-05   5.042914426638973e-06   3.096854799189858e-06
-2.3760117061588416e-05   0.0   -2.4312579089180248e-05
-2.3760117061588416e-05   0.0   -2.4312579089180248e-05
-2.3760117061588416e-05   0.0   -2.4312579089180248e-05
-2.3760117061588416e-05   0.0   -2.4312579089180248e-05
-4.103291281029506e-05   5.405421547778712e-06   1.2321608966636997e-06
-4.103291281029506e-05   5.405421547778712e-06   1.2321608966636997e-06
-4.103291281029506e-05   5.405421547778712e-06   1.2321608966636997e-06
-4.103291281029506e-05   5.405421547778712e-06   1.2321608966636997e-06
-3.17819214390965e-05   2.0399192688501134e-06   -1.2166856687976718e-05
-3.17819214390965e-05   2.0399192688501134e-06   -1.2166856687976718e-05
-3.17819214390965e-05   2.0399192688501134e-06   -1.2166856687976718e-05
-3.17819214390965e-05   2.0399192688501134e-06   -1.2166856687976718e-05
-4.103291281029513e-05   0.0   -2.755583201784748e-05
-4.103291281029513e-05   0.0   -2.755583201784748e-05
-4.103291281029513e-05   0.0   -2.755583201784748e-05
-4.103291281029513e-05   0.0   -2.755583201784748e-05
-2.3760117061588375e-05   5.405421547778712e-06   4.47541382533093e-06
-2.3760117061588375e-05   5.405421547778712e-06   4.47541382533093e-06
-2.3760117061588375e-05   5.405421547778712e-06   4.47541382533093e-06
-2.3760117061588375e-05   5.405421547778712e-06   4.47541382533093e-06
-2.373465617000465e-05   0.0   -2.446287694090143e-05
-2.373465617000465e-05   0.0   -2.446287694090143e-05
-2.373465617000465e-05   0.0   -2.446287694090143e-05
-2.373465617000465e-05   0.0   -2.446287694090143e-05
-4.369234006006355e-05   6.166310537511194e-06   5.100143220023462e-06
-4.369234006006355e-05   6.166310537511194e-06   5.100143220023462e-06
-4.369234006006355e-05   6.166310537511194e-06   5.100143220023462e-06
-4.369234006006355e-05   6.166310537511194e-06   5.100143220023462e-06
-3.2383784490149834e-05   2.5774625641217064e-06   -1.1594140612465693e-05
-3.2383784490149834e-05   2.5774625641217064e-06   -1.1594140612465693e-05
-3.2383784490149834e-05   2.5774625641217064e-06   -1.1594140612465693e-05
-3.2383784490149834e-05   2.5774625641217064e-06   -1.1594140612465693e-05
-2.419389159319486e-05   0.0   -2.2609744481679057e-05
-2.419389159319486e-05   0.0   -2.2609744481679057e-05
-2.419389159319486e-05   0.0   -2.2609744481679057e-05
-2.419389159319486e-05   0.0   -2.2609744481679057e-05
-1.1031336526617711e-05   1.5341847438443706e-06   2.4835814225613516e-07
-1.1031336526617711e-05   1.5341847438443706e-06   2.4835814225613516e-07
-1.1031336526617711e-05   1.5341847438443706e-06   2.4835814225613516e-07
-1.1031336526617711e-05   1.5341847438443706e-06   2.4835814225613516e-07
-1.059856785886464e-05   0.0   -2.242010629487778e-05
-1.059856785886464e-05   0.0   -2.242010629487778e-05
-1.059856785886464e-05   0.0   -2.242010629487778e-05
-1.059856785886464e-05   0.0   -2.242010629487778e-05
-2.3704772803600578e-05   2.1910454348986343e-06   -1.8910586479238106e-06
-2.3704772803600578e-05   2.1910454348986343e-06   -1.8910586479238106e-06
-2.3704772803600578e-05   2.1910454348986343e-06   -1.8910586479238106e-06
-2.3704772803600578e-05   2.1910454348986343e-06   -1.8910586479238106e-06
-1.739622972602973e-05   1.5803182233436333e-07   -1.1185488943003243e-05
-1.739622972602973e-05   1.5803182233436333e-07   -1.1185488943003243e-05
-1.739622972602973e-05   1.5803182233436333e-07   -1.1185488943003243e-05
-1.739622972602973e-05   1.5803182233436333e-07   -1.1185488943003243e-05
-2.3704772803600558e-05   0.0   -2.3734733555816984e-05
-2.3704772803600558e-05   0.0   -2.3734733555816984e-05
-2.3704772803600558e-05   0.0   -2.3734733555816984e-05
-2.3704772803600558e-05   0.0   -2.3734733555816984e-05
-1.059856785886464e-05   2.191045434898641e-06   -5.764313869846218e-07
-1.059856785886464e-05   2.191045434898641e-06   -5.764313869846218e-07
-1.059856785886464e-05   2.191045434898641e-06   -5.764313869846218e-07
-1.059856785886464e-05   2.191045434898641e-06   -5.764313869846218e-07
-1.0350807716188842e-05   0.0   -2.2699159367696984e-05
-1.0350807716188842e-05   0.0   -2.2699159367696984e-05
-1.0350807716188842e-05   0.0   -2.2699159367696984e-05
-1.0350807716188842e-05   0.0   -2.2699159367696984e-05
-2.3760117061588416e-05   2.6890328691387064e-06   -1.963730180180989e-06
-2.3760117061588416e-05   2.6890328691387064e-06   -1.963730180180989e-06
-2.3760117061588416e-05   2.6890328691387064e-06   -1.963730180180989e-06
-2.3760117061588416e-05   2.6890328691387064e-06   -1.963730180180989e-06
-1.7027790259894715e-05   8.629784900999835e-07   -1.2088642222247232e-05
-1.7027790259894715e-05   8.629784900999835e-07   -1.2088642222247232e-05
-1.7027790259894715e-05   8.629784900999835e-07   -1.2088642222247232e-05
-1.7027790259894715e-05   8.629784900999835e-07   -1.2088642222247232e-05
-2.3760117061588416e-05   0.0   -2.4312579089180248e-05
-2.3760117061588416e-05   0.0   -2.4312579089180248e-05
-2.3760117061588416e-05   0.0   -2.4312579089180248e-05
-2.3760117061588416e-05   0.0   -2.4312579089180248e-05
-1.035080771618886e-05   2.6890328691387064e-06   -3.503104586977632e-07
-1.035080771618886e-05   2.6890328691387064e-06   -3.503104586977632e-07
-1.035080771618886e-05   2.6890328691387064e-06   -3.503104586977632e-07
-1.035080771618886e-05   2.6890328691387064e-06   -3.503104586977632e-07
-1.0123301742569547e-05   0.0   -2.2583837067844696e-05
-1.0123301742569547e-05   0.0   -2.2583837067844696e-05
-1.0123301742569547e-05   0.0   -2.2583837067844696e-05
-1.0123301742569547e-05   0.0   -2.2583837067844696e-05
-2.3734656170004586e-05   3.131733121761182e-06   -1.777286228509583e-06
-2.3734656170004586e-05   3.131733121761182e-06   -1.777286228509583e-06
-2.3734656170004586e-05   3.131733121761182e-06   -1.777286228509583e-06
-2.3734656170004586e-05   3.131733121761182e-06   -1.777286228509583e-06
-1.6941709402078976e-05   1.4406183511129446e-06   -1.2084195312663413e-05
-1.6941709402078976e-05   1.4406183511129446e-06   -1.2084195312663413e-05
-1.6941709402078976e-05   1.4406183511129446e-06   -1.2084195312663413e-05
-1.6941709402078976e-05   1.4406183511129446e-06   -1.2084195312663413e-05
-1.103133652661773e-05   0.0   -2.168923363537243e-05
-1.103133652661773e-05   0.0   -2.168923363537243e-05
-1.103133652661773e-05   0.0   -2.168923363537243e-05
-1.103133652661773e-05   0.0   -2.168923363537243e-05
1.3949707477906975e-06   -1.9956753938012536e-07   -1.0984620349864388e-06
1.3949707477906975e-06   -1.9956753938012536e-07   -1.0984620349864388e-06
1.3949707477906975e-06   -1.9956753938012536e-07   -1.0984620349864388e-06
1.3949707477906975e-06   -1.9956753938012536e-07   -1.0984620349864388e-06
1.676540596347952e-06   0.0   -2.2186247333194633e-05
1.676540596347952e-06   0.0   -2.2186247333194633e-05
1.676540596347952e-06   0.0   -2.2186247333194633e-05
1.676540596347952e-06   0.0   -2.2186247333194633e-05
-1.059856785886464e-05   3.8976493613851183e-07   -1.9615922028567877e-06
-1.059856785886464e-05   3.8976493613851183e-07   -1.9615922028567877e-06
-1.059856785886464e-05   3.8976493613851183e-07   -1.9615922028567877e-06
-1.059856785886464e-05   3.8976493613851183e-07   -1.9615922028567877e-06
-4.677397965134878e-06   -4.1417808151856606e-07   -1.1347842881812134e-05
-4.677397965134878e-06   -4.1417808151856606e-07   -1.1347842881812134e-05
-4.677397965134878e-06   -4.1417808151856606e-07   -1.1347842881812134e-05
-4.677397965134878e-06   -4.1417808151856606e-07   -1.1347842881812134e-05
-1.059856785886466e-05   0.0   -2.242010629487782e-05
-1.059856785886466e-05   0.0   -2.242010629487782e-05
-1.059856785886466e-05   0.0   -2.242010629487782e-05
-1.059856785886466e-05   0.0   -2.242010629487782e-05
1.6765405963479548e-06   3.8976493613851183e-07   -1.727733241173678e-06
1.6765405963479548e-06   3.8976493613851183e-07   -1.727733241173678e-06
1.6765405963479548e-06   3.8976493613851183e-07   -1.727733241173678e-06
1.6765405963479548e-06   3.8976493613851183e-07   -1.727733241173678e-06
1.9002943516380983e-06   0.0   -2.215362286898261e-05
1.9002943516380983e-06   0.0   -2.215362286898261e-05
1.9002943516380983e-06   0.0   -2.215362286898261e-05
1.9002943516380983e-06   0.0   -2.215362286898261e-05
-1.0350807716188824e-05   9.092274978572844e-07   -2.28065592131875e-06
-1.0350807716188824e-05   9.092274978572844e-07   -2.28065592131875e-06
-1.0350807716188824e-05   9.092274978572844e-07   -2.28065592131875e-06
-1.0350807716188824e-05   9.092274978572844e-07   -2.28065592131875e-06
-4.3491367536132716e-06   2.2206952157930853e-07   -1.1871146073177905e-05
-4.3491367536132716e-06   2.2206952157930853e-07   -1.1871146073177905e-05
-4.3491367536132716e-06   2.2206952157930853e-07   -1.1871146073177905e-05
-4.3491367536132716e-06   2.2206952157930853e-07   -1.1871146073177905e-05
-1.035080771618886e-05   0.0   -2.269915936769702e-05
-1.035080771618886e-05   0.0   -2.269915936769702e-05
-1.035080771618886e-05   0.0   -2.269915936769702e-05
-1.035080771618886e-05   0.0   -2.269915936769702e-05
1.9002943516381015e-06   9.092274978572844e-07   -1.735119422604384e-06
1.9002943516381015e-06   9.092274978572844e-07   -1.735119422604384e-06
1.9002943516381015e-06   9.092274978572844e-07   -1.735119422604384e-06
1.9002943516381015e-06   9.092274978572844e-07   -1.735119422604384e-06
2.197536148058353e-06   0.0   -2.16777090600503e-05
2.197536148058353e-06   0.0   -2.16777090600503e-05
2.197536148058353e-06   0.0   -2.16777090600503e-05
2.197536148058353e-06   0.0   -2.16777090600503e-05
-1.0123301742569539e-05   1.5102133463239625e-06   -2.049107250131526e-06
-1.0123301742569539e-05   1.5102133463239625e-06   -2.049107250131526e-06
-1.0123301742569539e-05   1.5102133463239625e-06   -2.049107250131526e-06
-1.0123301742569539e-05   1.5102133463239625e-06   -2.049107250131526e-06
-4.076635784065245e-06   8.512085897055693e-07   -1.1731480993667638e-05
-4.076635784065245e-06   8.512085897055693e-07   -1.1731480993667638e-05
-4.076635784065245e-06   8.512085897055693e-07   -1.1731480993667638e-05
-4.076635784065245e-06   8.512085897055693e-07   -1.1731480993667638e-05
1.3949707477907e-06   0.0   -2.1808974159000508e-05
1.3949707477907e-06   0.0   -2.1808974159000508e-05
1.3949707477907e-06   0.0   -2.1808974159000508e-05
1.3949707477907e-06   0.0   -2.1808974159000508e-05
1.4893329481920718e-05   -1.7468960589475885e-06   -3.5984723748560025e-07
1.4893329481920718e-05   -1.7468960589475885e-06   -3.5984723748560025e-07
1.4893329481920718e-05   -1.7468960589475885e-06   -3.5984723748560025e-07
1.4893329481920718e-05   -1.7468960589475885e-06   -3.5984723748560025e-07
1.4934040206123463e-05   0.0   -2.2974458247250198e-05
1.4934040206123463e-05   0.0   -2.2974458247250198e-05
1.4934040206123463e-05   0.0   -2.2974458247250198e-05
1.4934040206123463e-05   0.0   -2.2974458247250198e-05
1.6765405963479548e-06   -1.3136848567591456e-06   -9.041465023553827e-08
1.6765405963479548e-06   -1.3136848567591456e-06   -9.041465023553827e-08
1.6765405963479548e-06   -1.3136848567591456e-06   -9.041465023553827e-08
1.6765405963479548e-06   -1.3136848567591456e-06   -9.041465023553827e-08
8.164505476957081e-06   -9.712367402080762e-07   -1.1109158321181377e-05
8.164505476957081e-06   -9.712367402080762e-07   -1.1109158321181377e-05
8.164505476957081e-06   -9.712367402080762e-07   -1.1109158321181377e-05
8.164505476957081e-06   -9.712367402080762e-07   -1.1109158321181377e-05
1.6765405963479578e-06   0.0   -2.218624733319471e-05
1.6765405963479578e-06   0.0   -2.218624733319471e-05
1.6765405963479578e-06   0.0   -2.218624733319471e-05
1.6765405963479578e-06   0.0   -2.218624733319471e-05
1.4934040206123436e-05   -1.3136848567591456e-06   -8.786255642910256e-07
1.4934040206123436e-05   -1.3136848567591456e-06   -8.786255642910256e-07
1.4934040206123436e-05   -1.3136848567591456e-06   -8.786255642910256e-07
1.4934040206123436e-05   -1.3136848567591456e-06   -8.786255642910256e-07
1.4882341193302694e-05   0.0   -2.2646493588350944e-05
1.4882341193302694e-05   0.0   -2.2646493588350944e-05
1.4882341193302694e-05   0.0   -2.2646493588350944e-05
1.4882341193302694e-05   0.0   -2.2646493588350944e-05
1.9002943516381015e-06   -8.21451198947153e-07   -5.168781328750015e-07
1.9002943516381015e-06   -8.21451198947153e-07   -5.168781328750015e-07
1.9002943516381015e-06   -8.21451198947153e-07   -5.168781328750015e-07
1.9002943516381015e-06   -8.21451198947153e-07   -5.168781328750015e-07
8.279440894825326e-06   -3.8353854596352726e-07   -1.1411536629977208e-05
8.279440894825326e-06   -3.8353854596352726e-07   -1.1411536629977208e-05
8.279440894825326e-06   -3.8353854596352726e-07   -1.1411536629977208e-05
8.279440894825326e-06   -3.8353854596352726e-07   -1.1411536629977208e-05
1.9002943516381015e-06   0.0   -2.2153622868982652e-05
1.9002943516381015e-06   0.0   -2.2153622868982652e-05
1.9002943516381015e-06   0.0   -2.2153622868982652e-05
1.9002943516381015e-06   0.0   -2.2153622868982652e-05
1.4882341193302667e-05   -8.21451198947153e-07   -1.0097488522432903e-06
1.4882341193302667e-05   -8.21451198947153e-07   -1.0097488522432903e-06
1.4882341193302667e-05   -8.21451198947153e-07   -1.0097488522432903e-06
1.4882341193302667e-05   -8.21451198947153e-07   -1.0097488522432903e-06
1.5182348856752001e-05   0.0   -2.177415681279696e-05
1.5182348856752001e-05   0.0   -2.177415681279696e-05
1.5182348856752001e-05   0.0   -2.177415681279696e-05
1.5182348856752001e-05   0.0   -2.177415681279696e-05
2.1975361480583567e-06   -1.6074625457769624e-07   -3.6354545560936506e-08
2.1975361480583567e-06   -1.6074625457769624e-07   -3.6354545560936506e-08
2.1975361480583567e-06   -1.6074625457769624e-07   -3.6354545560936506e-08
2.1975361480583567e-06   -1.6074625457769624e-07   -3.6354545560936506e-08
8.541321604195052e-06   3.1622171348807894e-07   -1.0895511086628215e-05
8.541321604195052e-06   3.1622171348807894e-07   -1.0895511086628215e-05
8.541321604195052e-06   3.1622171348807894e-07   -1.0895511086628215e-05
8.541321604195052e-06   3.1622171348807894e-07   -1.0895511086628215e-05
1.489332948192077e-05   0.0   -2.2857111794369062e-05
1.489332948192077e-05   0.0   -2.2857111794369062e-05
1.489332948192077e-05   0.0   -2.2857111794369062e-05
1.489332948192077e-05   0.0   -2.2857111794369062e-05
3.369904635580748e-05   -4.437945085597291e-06   5.822982610750524e-06
3.369904635580748e-05   -4.437945085597291e-06   5.822982610750524e-06
3.369904635580748e-05   -4.437945085597291e-06   5.822982610750524e-06
3.369904635580748e-05   -4.437945085597291e-06   5.822982610750524e-06
3.166732381246625e-05   0.0   -2.5235540413055053e-05
3.166732381246625e-05   0.0   -2.5235540413055053e-05
3.166732381246625e-05   0.0   -2.5235540413055053e-05
3.166732381246625e-05   0.0   -2.5235540413055053e-05
1.4934040206123436e-05   -3.7684702763414167e-06   4.914347763321101e-06
1.4934040206123436e-05   -3.7684702763414167e-06   4.914347763321101e-06
1.4934040206123436e-05   -3.7684702763414167e-06   4.914347763321101e-06
1.4934040206123436e-05   -3.7684702763414167e-06   4.914347763321101e-06
2.328032664719351e-05   -1.9820238489049937e-06   -1.0067997494924149e-05
2.328032664719351e-05   -1.9820238489049937e-06   -1.0067997494924149e-05
2.328032664719351e-05   -1.9820238489049937e-06   -1.0067997494924149e-05
2.328032664719351e-05   -1.9820238489049937e-06   -1.0067997494924149e-05
1.4934040206123449e-05   0.0   -2.2974458247250178e-05
1.4934040206123449e-05   0.0   -2.2974458247250178e-05
1.4934040206123449e-05   0.0   -2.2974458247250178e-05
1.4934040206123449e-05   0.0   -2.2974458247250178e-05
3.166732381246625e-05   -3.7684702763414303e-06   2.653265597516253e-06
3.166732381246625e-05   -3.7684702763414303e-06   2.653265597516253e-06
3.166732381246625e-05   -3.7684702763414303e-06   2.653265597516253e-06
3.166732381246625e-05   -3.7684702763414303e-06   2.653265597516253e-06
3.073595362255122e-05   0.0   -2.471101412605964e-05
3.073595362255122e-05   0.0   -2.471101412605964e-05
3.073595362255122e-05   0.0   -2.471101412605964e-05
3.073595362255122e-05   0.0   -2.471101412605964e-05
1.4882341193302667e-05   -3.4408675628478226e-06   3.7761937937299334e-06
1.4882341193302667e-05   -3.4408675628478226e-06   3.7761937937299334e-06
1.4882341193302667e-05   -3.4408675628478226e-06   3.7761937937299334e-06
1.4882341193302667e-05   -3.4408675628478226e-06   3.7761937937299334e-06
2.2834996914337328e-05   -1.4471298990078692e-06   -1.0674475006298431e-05
2.2834996914337328e-05   -1.4471298990078692e-06   -1.0674475006298431e-05
2.2834996914337328e-05   -1.4471298990078692e-06   -1.0674475006298431e-05
2.2834996914337328e-05   -1.4471298990078692e-06   -1.0674475006298431e-05
1.4882341193302694e-05   0.0   -2.2646493588350944e-05
1.4882341193302694e-05   0.0   -2.2646493588350944e-05
1.4882341193302694e-05   0.0   -2.2646493588350944e-05
1.4882341193302694e-05   0.0   -2.2646493588350944e-05
3.073595362255117e-05   -3.4408675628478226e-06   1.7116732560212364e-06
3.073595362255117e-05   -3.4408675628478226e-06   1.7116732560212364e-06
3.073595362255117e-05   -3.4408675628478226e-06   1.7116732560212364e-06
3.073595362255117e-05   -3.4408675628478226e-06   1.7116732560212364e-06
2.9340835418683555e-05   0.0   -2.3373452197188265e-05
2.9340835418683555e-05   0.0   -2.3373452197188265e-05
2.9340835418683555e-05   0.0   -2.3373452197188265e-05
2.9340835418683555e-05   0.0   -2.3373452197188265e-05
1.518234885675196e-05   -2.665492307318842e-06   1.8233207904223114e-06
1.518234885675196e-05   -2.665492307318842e-06   1.8233207904223114e-06
1.518234885675196e-05   -2.665492307318842e-06   1.8233207904223114e-06
1.518234885675196e-05   -2.665492307318842e-06   1.8233207904223114e-06
2.2111588305993086e-05   -6.057988406977656e-07   -1.096122770495219e-05
2.2111588305993086e-05   -6.057988406977656e-07   -1.096122770495219e-05
2.2111588305993086e-05   -6.057988406977656e-07   -1.096122770495219e-05
2.2111588305993086e-05   -6.057988406977656e-07   -1.096122770495219e-05
-3.289439692176162e-05   4.193993296948946e-06   -2.1687064399753848e-05
-3.289439692176162e-05   4.193993296948946e-06   -2.1687064399753848e-05