<?xml version="1.0"?> 
<VTKFile type="UnstructuredGrid"> 
   <UnstructuredGrid> 
      <Piece NumberOfPoints="6000"  NumberOfCells="1500">  
          <Points>  
             <DataArray type="Float64" NumberOfComponents="3" format="ascii">   
-500.0   0.0   0.0
-450.0   0.0   0.0
-500.0   30.0   0.0
-500.0   0.0   16.666666666666668
-450.0   0.0   0.0
-450.0   30.0   0.0
-500.0   30.0   0.0
-450.0   30.0   16.666666666666668
-500.0   0.0   16.666666666666668
-500.0   30.0   16.666666666666668
-450.0   30.0   16.666666666666668
-500.0   30.0   0.0
-500.0   0.0   16.666666666666668
-450.0   30.0   16.666666666666668
-450.0   0.0   16.666666666666668
-450.0   0.0   0.0
-500.0   0.0   16.666666666666668
-450.0   30.0   16.666666666666668
-450.0   0.0   0.0
-500.0   30.0   0.0
-500.0   0.0   16.666666666666668
-450.0   0.0   16.666666666666668
-500.0   30.0   16.666666666666668
-500.0   0.0   33.333333333333336
-450.0   0.0   16.666666666666668
-450.0   30.0   16.666666666666668
-500.0   30.0   16.666666666666668
-450.0   30.0   33.333333333333336
-500.0   0.0   33.333333333333336
-500.0   30.0   33.333333333333336
-450.0   30.0   33.333333333333336
-500.0   30.0   16.666666666666668
-500.0   0.0   33.333333333333336
-450.0   30.0   33.333333333333336
-450.0   0.0   33.333333333333336
-450.0   0.0   16.666666666666668
-500.0   0.0   33.333333333333336
-450.0   30.0   33.333333333333336
-450.0   0.0   16.666666666666668
-500.0   30.0   16.666666666666668
-500.0   0.0   33.333333333333336
-450.0   0.0   33.333333333333336
-500.0   30.0   33.333333333333336
-500.0   0.0   50.0
-450.0   0.0   33.333333333333336
-450.0   30.0   33.333333333333336
-500.0   30.0   33.333333333333336
-450.0   30.0   50.0
-500.0   0.0   50.0
-500.0   30.0   50.0
-450.0   30.0   50.0
-500.0   30.0   33.333333333333336
-500.0   0.0   50.0
-450.0   30.0   50.0
-450.0   0.0   50.0
-450.0   0.0   33.333333333333336
-500.0   0.0   50.0
-450.0   30.0   50.0
-450.0   0.0   33.333333333333336
-500.0   30.0   33.333333333333336
-500.0   30.0   0.0
-450.0   30.0   0.0
-500.0   60.0   0.0
-500.0   30.0   16.666666666666668
-450.0   30.0   0.0
-450.0   60.0   0.0
-500.0   60.0   0.0
-450.0   60.0   16.666666666666668
-500.0   30.0   16.666666666666668
-500.0   60.0   16.666666666666668
-450.0   60.0   16.666666666666668
-500.0   60.0   0.0
-500.0   30.0   16.666666666666668
-450.0   60.0   16.666666666666668
-450.0   30.0   16.666666666666668
-450.0   30.0   0.0
-500.0   30.0   16.666666666666668
-450.0   60.0   16.666666666666668
-450.0   30.0   0.0
-500.0   60.0   0.0
-500.0   30.0   16.666666666666668
-450.0   30.0   16.666666666666668
-500.0   60.0   16.666666666666668
-500.0   30.0   33.333333333333336
-450.0   30.0   16.666666666666668
-450.0   60.0   16.666666666666668
-500.0   60.0   16.666666666666668
-450.0   60.0   33.333333333333336
-500.0   30.0   33.333333333333336
-500.0   60.0   33.333333333333336
-450.0   60.0   33.333333333333336
-500.0   60.0   16.666666666666668
-500.0   30.0   33.333333333333336
-450.0   60.0   33.333333333333336
-450.0   30.0   33.333333333333336
-450.0   30.0   16.666666666666668
-500.0   30.0   33.333333333333336
-450.0   60.0   33.333333333333336
-450.0   30.0   16.666666666666668
-500.0   60.0   16.666666666666668
-500.0   30.0   33.333333333333336
-450.0   30.0   33.333333333333336
-500.0   60.0   33.333333333333336
-500.0   30.0   50.0
-450.0   30.0   33.333333333333336
-450.0   60.0   33.333333333333336
-500.0   60.0   33.333333333333336
-450.0   60.0   50.0
-500.0   30.0   50.0
-500.0   60.0   50.0
-450.0   60.0   50.0
-500.0   60.0   33.333333333333336
-500.0   30.0   50.0
-450.0   60.0   50.0
-450.0   30.0   50.0
-450.0   30.0   33.333333333333336
-500.0   30.0   50.0
-450.0   60.0   50.0
-450.0   30.0   33.333333333333336
-500.0   60.0   33.333333333333336
-500.0   60.0   0.0
-450.0   60.0   0.0
-500.0   90.0   0.0
-500.0   60.0   16.666666666666668
-450.0   60.0   0.0
-450.0   90.0   0.0
-500.0   90.0   0.0
-450.0   90.0   16.666666666666668
-500.0   60.0   16.666666666666668
-500.0   90.0   16.666666666666668
-450.0   90.0   16.666666666666668
-500.0   90.0   0.0
-500.0   60.0   16.666666666666668
-450.0   90.0   16.666666666666668
-450.0   60.0   16.666666666666668
-450.0   60.0   0.0
-500.0   60.0   16.666666666666668
-450.0   90.0   16.666666666666668
-450.0   60.0   0.0
-500.0   90.0   0.0
-500.0   60.0   16.666666666666668
-450.0   60.0   16.666666666666668
-500.0   90.0   16.666666666666668
-500.0   60.0   33.333333333333336
-450.0   60.0   16.666666666666668
-450.0   90.0   16.666666666666668
-500.0   90.0   16.666666666666668
-450.0   90.0   33.333333333333336
-500.0   60.0   33.333333333333336
-500.0   90.0   33.333333333333336
-450.0   90.0   33.333333333333336
-500.0   90.0   16.666666666666668
-500.0   60.0   33.333333333333336
-450.0   90.0   33.333333333333336
-450.0   60.0   33.333333333333336
-450.0   60.0   16.666666666666668
-500.0   60.0   33.333333333333336
-450.0   90.0   33.333333333333336
-450.0   60.0   16.666666666666668
-500.0   90.0   16.666666666666668
-500.0   60.0   33.333333333333336
-450.0   60.0   33.333333333333336
-500.0   90.0   33.333333333333336
-500.0   60.0   50.0
-450.0   60.0   33.333333333333336
-450.0   90.0   33.333333333333336
-500.0   90.0   33.333333333333336
-450.0   90.0   50.0
-500.0   60.0   50.0
-500.0   90.0   50.0
-450.0   90.0   50.0
-500.0   90.0   33.333333333333336
-500.0   60.0   50.0
-450.0   90.0   50.0
-450.0   60.0   50.0
-450.0   60.0   33.333333333333336
-500.0   60.0   50.0
-450.0   90.0   50.0
-450.0   60.0   33.333333333333336
-500.0   90.0   33.333333333333336
-500.0   90.0   0.0
-450.0   90.0   0.0
-500.0   120.0   0.0
-500.0   90.0   16.666666666666668
-450.0   90.0   0.0
-450.0   120.0   0.0
-500.0   120.0   0.0
-450.0   120.0   16.666666666666668
-500.0   90.0   16.666666666666668
-500.0   120.0   16.666666666666668
-450.0   120.0   16.666666666666668
-500.0   120.0   0.0
-500.0   90.0   16.666666666666668
-450.0   120.0   16.666666666666668
-450.0   90.0   16.666666666666668
-450.0   90.0   0.0
-500.0   90.0   16.666666666666668
-450.0   120.0   16.666666666666668
-450.0   90.0   0.0
-500.0   120.0   0.0
-500.0   90.0   16.666666666666668
-450.0   90.0   16.666666666666668
-500.0   120.0   16.666666666666668
-500.0   90.0   33.333333333333336
-450.0   90.0   16.666666666666668
-450.0   120.0   16.666666666666668
-500.0   120.0   16.666666666666668
-450.0   120.0   33.333333333333336
-500.0   90.0   33.333333333333336
-500.0   120.0   33.333333333333336
-450.0   120.0   33.333333333333336
-500.0   120.0   16.666666666666668
-500.0   90.0   33.333333333333336
-450.0   120.0   33.333333333333336
-450.0   90.0   33.333333333333336
-450.0   90.0   16.666666666666668
-500.0   90.0   33.333333333333336
-450.0   120.0   33.333333333333336
-450.0   90.0   16.666666666666668
-500.0   120.0   16.666666666666668
-500.0   90.0   33.333333333333336
-450.0   90.0   33.333333333333336
-500.0   120.0   33.333333333333336
-500.0   90.0   50.0
-450.0   90.0   33.333333333333336
-450.0   120.0   33.333333333333336
-500.0   120.0   33.333333333333336
-450.0   120.0   50.0
-500.0   90.0   50.0
-500.0   120.0   50.0
-450.0   120.0   50.0
-500.0   120.0   33.333333333333336
-500.0   90.0   50.0
-450.0   120.0   50.0
-450.0   90.0   50.0
-450.0   90.0   33.333333333333336
-500.0   90.0   50.0
-450.0   120.0   50.0
-450.0   90.0   33.333333333333336
-500.0   120.0   33.333333333333336
-500.0   120.0   0.0
-450.0   120.0   0.0
-500.0   150.0   0.0
-500.0   120.0   16.666666666666668
-450.0   120.0   0.0
-450.0   150.0   0.0
-500.0   150.0   0.0
-450.0   150.0   16.666666666666668
-500.0   120.0   16.666666666666668
-500.0   150.0   16.666666666666668
-450.0   150.0   16.666666666666668
-500.0   150.0   0.0
-500.0   120.0   16.666666666666668
-450.0   150.0   16.666666666666668
-450.0   120.0   16.666666666666668
-450.0   120.0   0.0
-500.0   120.0   16.666666666666668
-450.0   150.0   16.666666666666668
-450.0   120.0   0.0
-500.0   150.0   0.0
-500.0   120.0   16.666666666666668
-450.0   120.0   16.666666666666668
-500.0   150.0   16.666666666666668
-500.0   120.0   33.333333333333336
-450.0   120.0   16.666666666666668
-450.0   150.0   16.666666666666668
-500.0   150.0   16.666666666666668
-450.0   150.0   33.333333333333336
-500.0   120.0   33.333333333333336
-500.0   150.0   33.333333333333336
-450.0   150.0   33.333333333333336
-500.0   150.0   16.666666666666668
-500.0   120.0   33.333333333333336
-450.0   150.0   33.333333333333336
-450.0   120.0   33.333333333333336
-450.0   120.0   16.666666666666668
-500.0   120.0   33.333333333333336
-450.0   150.0   33.333333333333336
-450.0   120.0   16.666666666666668
-500.0   150.0   16.666666666666668
-500.0   120.0   33.333333333333336
-450.0   120.0   33.333333333333336
-500.0   150.0   33.333333333333336
-500.0   120.0   50.0
-450.0   120.0   33.333333333333336
-450.0   150.0   33.333333333333336
-500.0   150.0   33.333333333333336
-450.0   150.0   50.0
-500.0   120.0   50.0
-500.0   150.0   50.0
-450.0   150.0   50.0
-500.0   150.0   33.333333333333336
-500.0   120.0   50.0
-450.0   150.0   50.0
-450.0   120.0   50.0
-450.0   120.0   33.333333333333336
-500.0   120.0   50.0
-450.0   150.0   50.0
-450.0   120.0   33.333333333333336
-500.0   150.0   33.333333333333336
-450.0   0.0   0.0
-400.0   0.0   0.0
-450.0   30.0   0.0
-450.0   0.0   16.666666666666668
-400.0   0.0   0.0
-400.0   30.0   0.0
-450.0   30.0   0.0
-400.0   30.0   16.666666666666668
-450.0   0.0   16.666666666666668
-450.0   30.0   16.666666666666668
-400.0   30.0   16.666666666666668
-450.0   30.0   0.0
-450.0   0.0   16.666666666666668
-400.0   30.0   16.666666666666668
-400.0   0.0   16.666666666666668
-400.0   0.0   0.0
-450.0   0.0   16.666666666666668
-400.0   30.0   16.666666666666668
-400.0   0.0   0.0
-450.0   30.0   0.0
-450.0   0.0   16.666666666666668
-400.0   0.0   16.666666666666668
-450.0   30.0   16.666666666666668
[...]
          <PointData>  
             <DataArray type="Float64" NumberOfComponents="3" Name="Strains" format="ascii">   
-2.5528758638573152e-05   0.0   -1.694577054644619e-05
-2.5528758638573152e-05   0.0   -1.694577054644619e-05
-2.5528758638573152e-05   0.0   -1.694577054644619e-05
-2.5528758638573152e-05   0.0   -1.694577054644619e-05
-1.6225530274967787e-05   2.802726497520198e-06   2.412459580748366e-07
-1.6225530274967787e-05   2.802726497520198e-06   2.412459580748366e-07
-1.6225530274967787e-05   2.802726497520198e-06   2.412459580748366e-07
-1.6225530274967787e-05   2.802726497520198e-06   2.412459580748366e-07
-1.5891603429222535e-05   0.0   -1.6018646170484742e-05
-1.5891603429222535e-05   0.0   -1.6018646170484742e-05
-1.5891603429222535e-05   0.0   -1.6018646170484742e-05
-1.5891603429222535e-05   0.0   -1.6018646170484742e-05
-2.670093080083203e-05   3.3755191901125576e-06   -2.8412065203045286e-08
-2.670093080083203e-05   3.3755191901125576e-06   -2.8412065203045286e-08
-2.670093080083203e-05   3.3755191901125576e-06   -2.8412065203045286e-08
-2.670093080083203e-05   3.3755191901125576e-06   -2.8412065203045286e-08
-2.071018103389781e-05   7.726036466345369e-07   -8.451245684006597e-06
-2.071018103389781e-05   7.726036466345369e-07   -8.451245684006597e-06
-2.071018103389781e-05   7.726036466345369e-07   -8.451245684006597e-06
-2.071018103389781e-05   7.726036466345369e-07   -8.451245684006597e-06
-2.6700930800832073e-05   0.0   -1.8043957684552283e-05
-2.6700930800832073e-05   0.0   -1.8043957684552283e-05
-2.6700930800832073e-05   0.0   -1.8043957684552283e-05
-2.6700930800832073e-05   0.0   -1.8043957684552283e-05
-1.5891603429222535e-05   3.3755191901125644e-06   1.9968994488644852e-06
-1.5891603429222535e-05   3.3755191901125644e-06   1.9968994488644852e-06
-1.5891603429222535e-05   3.3755191901125644e-06   1.9968994488644852e-06
-1.5891603429222535e-05   3.3755191901125644e-06   1.9968994488644852e-06
-1.5922321811396647e-05   0.0   -1.6406931503019347e-05
-1.5922321811396647e-05   0.0   -1.6406931503019347e-05
-1.5922321811396647e-05   0.0   -1.6406931503019347e-05
-1.5922321811396647e-05   0.0   -1.6406931503019347e-05
-2.7517663368398347e-05   3.6196570175016194e-06   7.468435481492559e-07
-2.7517663368398347e-05   3.6196570175016194e-06   7.468435481492559e-07
-2.7517663368398347e-05   3.6196570175016194e-06   7.468435481492559e-07
-2.7517663368398347e-05   3.6196570175016194e-06   7.468435481492559e-07
-2.1311626306114325e-05   1.3641884846107782e-06   -8.243270435922937e-06
-2.1311626306114325e-05   1.3641884846107782e-06   -8.243270435922937e-06
-2.1311626306114325e-05   1.3641884846107782e-06   -8.243270435922937e-06
-2.1311626306114325e-05   1.3641884846107782e-06   -8.243270435922937e-06
-2.7517663368398394e-05   0.0   -1.857872571352032e-05
-2.7517663368398394e-05   0.0   -1.857872571352032e-05
-2.7517663368398394e-05   0.0   -1.857872571352032e-05
-2.7517663368398394e-05   0.0   -1.857872571352032e-05
-1.5922321811396617e-05   3.6196570175016194e-06   2.918637758650227e-06
-1.5922321811396617e-05   3.6196570175016194e-06   2.918637758650227e-06
-1.5922321811396617e-05   3.6196570175016194e-06   2.918637758650227e-06
-1.5922321811396617e-05   3.6196570175016194e-06   2.918637758650227e-06
-1.5898059456590414e-05   0.0   -1.650892857290341e-05
-1.5898059456590414e-05   0.0   -1.650892857290341e-05
-1.5898059456590414e-05   0.0   -1.650892857290341e-05
-1.5898059456590414e-05   0.0   -1.650892857290341e-05
-2.9291121793443103e-05   4.133826614414917e-06   3.332546019868867e-06
-2.9291121793443103e-05   4.133826614414917e-06   3.332546019868867e-06
-2.9291121793443103e-05   4.133826614414917e-06   3.332546019868867e-06
-2.9291121793443103e-05   4.133826614414917e-06   3.332546019868867e-06
-2.170786141249437e-05   1.7248309505140912e-06   -7.86082388337186e-06
-2.170786141249437e-05   1.7248309505140912e-06   -7.86082388337186e-06
-2.170786141249437e-05   1.7248309505140912e-06   -7.86082388337186e-06
-2.170786141249437e-05   1.7248309505140912e-06   -7.86082388337186e-06
-1.6225530274967814e-05   0.0   -1.526413464793407e-05
-1.6225530274967814e-05   0.0   -1.526413464793407e-05
-1.6225530274967814e-05   0.0   -1.526413464793407e-05
-1.6225530274967814e-05   0.0   -1.526413464793407e-05
-7.405498406542282e-06   1.0230348251086038e-06   4.9739361173636333e-08
-7.405498406542282e-06   1.0230348251086038e-06   4.9739361173636333e-08
-7.405498406542282e-06   1.0230348251086038e-06   4.9739361173636333e-08
-7.405498406542282e-06   1.0230348251086038e-06   4.9739361173636333e-08
-7.108762416089258e-06   0.0   -1.5139740745718106e-05
-7.108762416089258e-06   0.0   -1.5139740745718106e-05
-7.108762416089258e-06   0.0   -1.5139740745718106e-05
-7.108762416089258e-06   0.0   -1.5139740745718106e-05
-1.5891603429222535e-05   1.4648423746110188e-06   -1.3805778152626408e-06
-1.5891603429222535e-05   1.4648423746110188e-06   -1.3805778152626408e-06
-1.5891603429222535e-05   1.4648423746110188e-06   -1.3805778152626408e-06
-1.5891603429222535e-05   1.4648423746110188e-06   -1.3805778152626408e-06
-1.1667146345528522e-05   1.0366158517994733e-07   -7.604631147760628e-06
-1.1667146345528522e-05   1.0366158517994733e-07   -7.604631147760628e-06
-1.1667146345528522e-05   1.0366158517994733e-07   -7.604631147760628e-06
-1.1667146345528522e-05   1.0366158517994733e-07   -7.604631147760628e-06
-1.589160342922252e-05   0.0   -1.601864617048473e-05
-1.589160342922252e-05   0.0   -1.601864617048473e-05
-1.589160342922252e-05   0.0   -1.601864617048473e-05
-1.589160342922252e-05   0.0   -1.601864617048473e-05
-7.108762416089258e-06   1.4648423746110154e-06   -5.016723904960282e-07
-7.108762416089258e-06   1.4648423746110154e-06   -5.016723904960282e-07
-7.108762416089258e-06   1.4648423746110154e-06   -5.016723904960282e-07
-7.108762416089258e-06   1.4648423746110154e-06   -5.016723904960282e-07
-6.9363431323876406e-06   0.0   -1.5326869693172156e-05
-6.9363431323876406e-06   0.0   -1.5326869693172156e-05
-6.9363431323876406e-06   0.0   -1.5326869693172156e-05
-6.9363431323876406e-06   0.0   -1.5326869693172156e-05
-1.5922321811396647e-05   1.8001030164119459e-06   -1.4303003713376945e-06
-1.5922321811396647e-05   1.8001030164119459e-06   -1.4303003713376945e-06
-1.5922321811396647e-05   1.8001030164119459e-06   -1.4303003713376945e-06
-1.5922321811396647e-05   1.8001030164119459e-06   -1.4303003713376945e-06
-1.141397328080509e-05   5.76480397760469e-07   -8.210041017799382e-06
-1.141397328080509e-05   5.76480397760469e-07   -8.210041017799382e-06
-1.141397328080509e-05   5.76480397760469e-07   -8.210041017799382e-06
-1.141397328080509e-05   5.76480397760469e-07   -8.210041017799382e-06
-1.5922321811396647e-05   0.0   -1.6406931503019347e-05
-1.5922321811396647e-05   0.0   -1.6406931503019347e-05
-1.5922321811396647e-05   0.0   -1.6406931503019347e-05
-1.5922321811396647e-05   0.0   -1.6406931503019347e-05
-6.936343132387652e-06   1.8001030164119459e-06   -3.502385614905287e-07
-6.936343132387652e-06   1.8001030164119459e-06   -3.502385614905287e-07
-6.936343132387652e-06   1.8001030164119459e-06   -3.502385614905287e-07
-6.936343132387652e-06   1.8001030164119459e-06   -3.502385614905287e-07
-6.7770128348060554e-06   0.0   -1.5250144078620907e-05
-6.7770128348060554e-06   0.0   -1.5250144078620907e-05
-6.7770128348060554e-06   0.0   -1.5250144078620907e-05
-6.7770128348060554e-06   0.0   -1.5250144078620907e-05
-1.589805945659037e-05   2.0979741571374745e-06   -1.3071842032628076e-06
-1.589805945659037e-05   2.0979741571374745e-06   -1.3071842032628076e-06
-1.589805945659037e-05   2.0979741571374745e-06   -1.3071842032628076e-06
-1.589805945659037e-05   2.0979741571374745e-06   -1.3071842032628076e-06
-1.1349667323101348e-05   9.639895203320222e-07   -8.207446976994633e-06
-1.1349667323101348e-05   9.639895203320222e-07   -8.207446976994633e-06
-1.1349667323101348e-05   9.639895203320222e-07   -8.207446976994633e-06
-1.1349667323101348e-05   9.639895203320222e-07   -8.207446976994633e-06
-7.405498406542295e-06   0.0   -1.4650313752868908e-05
-7.405498406542295e-06   0.0   -1.4650313752868908e-05
-7.405498406542295e-06   0.0   -1.4650313752868908e-05
-7.405498406542295e-06   0.0   -1.4650313752868908e-05
9.157255546265107e-07   -1.3475004979051502e-07   -8.624571807951902e-07
9.157255546265107e-07   -1.3475004979051502e-07   -8.624571807951902e-07
9.157255546265107e-07   -1.3475004979051502e-07   -8.624571807951902e-07
9.157255546265107e-07   -1.3475004979051502e-07   -8.624571807951902e-07
1.1116672078368879e-06   0.0   -1.4982953037877911e-05
1.1116672078368879e-06   0.0   -1.4982953037877911e-05
1.1116672078368879e-06   0.0   -1.4982953037877911e-05
1.1116672078368879e-06   0.0   -1.4982953037877911e-05
-7.108762416089258e-06   2.6131284640028464e-07   -1.4390247058411946e-06
-7.108762416089258e-06   2.6131284640028464e-07   -1.4390247058411946e-06
-7.108762416089258e-06   2.6131284640028464e-07   -1.4390247058411946e-06
-7.108762416089258e-06   2.6131284640028464e-07   -1.4390247058411946e-06
-3.1469155993526963e-06   -2.7719940417421226e-07   -7.718995383390761e-06
-3.1469155993526963e-06   -2.7719940417421226e-07   -7.718995383390761e-06
-3.1469155993526963e-06   -2.7719940417421226e-07   -7.718995383390761e-06
-3.1469155993526963e-06   -2.7719940417421226e-07   -7.718995383390761e-06
-7.10876241608927e-06   0.0   -1.5139740745718133e-05
-7.10876241608927e-06   0.0   -1.5139740745718133e-05
-7.10876241608927e-06   0.0   -1.5139740745718133e-05
-7.10876241608927e-06   0.0   -1.5139740745718133e-05
1.1116672078368898e-06   2.6131284640028464e-07   -1.282236998001024e-06
1.1116672078368898e-06   2.6131284640028464e-07   -1.282236998001024e-06
1.1116672078368898e-06   2.6131284640028464e-07   -1.282236998001024e-06
1.1116672078368898e-06   2.6131284640028464e-07   -1.282236998001024e-06
1.2681802743201594e-06   0.0   -1.4960434973860696e-05
1.2681802743201594e-06   0.0   -1.4960434973860696e-05
1.2681802743201594e-06   0.0   -1.4960434973860696e-05
1.2681802743201594e-06   0.0   -1.4960434973860696e-05
-6.936343132387629e-06   6.107245321857657e-07   -1.652664015325823e-06
-6.936343132387629e-06   6.107245321857657e-07   -1.652664015325823e-06
-6.936343132387629e-06   6.107245321857657e-07   -1.652664015325823e-06
-6.936343132387629e-06   6.107245321857657e-07   -1.652664015325823e-06
-2.9202910708845495e-06   1.4942147654784247e-07   -8.069302284448215e-06
-2.9202910708845495e-06   1.4942147654784247e-07   -8.069302284448215e-06
-2.9202910708845495e-06   1.4942147654784247e-07   -8.069302284448215e-06
-2.9202910708845495e-06   1.4942147654784247e-07   -8.069302284448215e-06
-6.936343132387652e-06   0.0   -1.5326869693172183e-05
-6.936343132387652e-06   0.0   -1.5326869693172183e-05
-6.936343132387652e-06   0.0   -1.5326869693172183e-05
-6.936343132387652e-06   0.0   -1.5326869693172183e-05
1.2681802743201615e-06   6.107245321857657e-07   -1.2862292960143683e-06
1.2681802743201615e-06   6.107245321857657e-07   -1.2862292960143683e-06
1.2681802743201615e-06   6.107245321857657e-07   -1.2862292960143683e-06
1.2681802743201615e-06   6.107245321857657e-07   -1.2862292960143683e-06
1.4740891863790351e-06   0.0   -1.4641387646054058e-05
1.4740891863790351e-06   0.0   -1.4641387646054058e-05
1.4740891863790351e-06   0.0   -1.4641387646054058e-05
1.4740891863790351e-06   0.0   -1.4641387646054058e-05
-6.7770128348060495e-06   1.01459405427806e-06   -1.4983073766457544e-06
-6.7770128348060495e-06   1.01459405427806e-06   -1.4983073766457544e-06
-6.7770128348060495e-06   1.01459405427806e-06   -1.4983073766457544e-06
-6.7770128348060495e-06   1.01459405427806e-06   -1.4983073766457544e-06
-2.731126973004303e-06   5.71235039265081e-07   -7.975435070640871e-06
-2.731126973004303e-06   5.71235039265081e-07   -7.975435070640871e-06
-2.731126973004303e-06   5.71235039265081e-07   -7.975435070640871e-06
-2.731126973004303e-06   5.71235039265081e-07   -7.975435070640871e-06
9.157255546265124e-07   0.0   -1.4731163782743215e-05
9.157255546265124e-07   0.0   -1.4731163782743215e-05
9.157255546265124e-07   0.0   -1.4731163782743215e-05
9.157255546265124e-07   0.0   -1.4731163782743215e-05
9.960283126514402e-06   -1.1683137618330668e-06   -3.578894200298407e-07
9.960283126514402e-06   -1.1683137618330668e-06   -3.578894200298407e-07
9.960283126514402e-06   -1.1683137618330668e-06   -3.578894200298407e-07
9.960283126514402e-06   -1.1683137618330668e-06   -3.578894200298407e-07
9.99555269065783e-06   0.0   -1.5509021003001676e-05
9.99555269065783e-06   0.0   -1.5509021003001676e-05
9.99555269065783e-06   0.0   -1.5509021003001676e-05
9.99555269065783e-06   0.0   -1.5509021003001676e-05
1.1116672078368898e-06   -8.767799418728554e-07   -1.764772331764012e-07
1.1116672078368898e-06   -8.767799418728554e-07   -1.764772331764012e-07
1.1116672078368898e-06   -8.767799418728554e-07   -1.764772331764012e-07
1.1116672078368898e-06   -8.767799418728554e-07   -1.764772331764012e-07
5.4556391226421706e-06   -6.482143502153841e-07   -7.55356977951301e-06
5.4556391226421706e-06   -6.482143502153841e-07   -7.55356977951301e-06
5.4556391226421706e-06   -6.482143502153841e-07   -7.55356977951301e-06
5.4556391226421706e-06   -6.482143502153841e-07   -7.55356977951301e-06
1.1116672078368917e-06   0.0   -1.4982953037877963e-05
1.1116672078368917e-06   0.0   -1.4982953037877963e-05
1.1116672078368917e-06   0.0   -1.4982953037877963e-05
1.1116672078368917e-06   0.0   -1.4982953037877963e-05
9.99555269065781e-06   -8.767799418728554e-07   -7.025451983001117e-07
9.99555269065781e-06   -8.767799418728554e-07   -7.025451983001117e-07
9.99555269065781e-06   -8.767799418728554e-07   -7.025451983001117e-07
9.99555269065781e-06   -8.767799418728554e-07   -7.025451983001117e-07
9.967874774133469e-06   0.0   -1.5287683830315545e-05
9.967874774133469e-06   0.0   -1.5287683830315545e-05
9.967874774133469e-06   0.0   -1.5287683830315545e-05
9.967874774133469e-06   0.0   -1.5287683830315545e-05
1.2681802743201615e-06   -5.45414760758042e-07   -4.6094414083854793e-07
1.2681802743201615e-06   -5.45414760758042e-07   -4.6094414083854793e-07
1.2681802743201615e-06   -5.45414760758042e-07   -4.6094414083854793e-07
1.2681802743201615e-06   -5.45414760758042e-07   -4.6094414083854793e-07
5.5397709909851805e-06   -2.539423270313192e-07   -7.755145462182934e-06
5.5397709909851805e-06   -2.539423270313192e-07   -7.755145462182934e-06
5.5397709909851805e-06   -2.539423270313192e-07   -7.755145462182934e-06
5.5397709909851805e-06   -2.539423270313192e-07   -7.755145462182934e-06
1.2681802743201615e-06   0.0   -1.4960434973860721e-05
1.2681802743201615e-06   0.0   -1.4960434973860721e-05
1.2681802743201615e-06   0.0   -1.4960434973860721e-05
1.2681802743201615e-06   0.0   -1.4960434973860721e-05
9.967874774133452e-06   -5.454147607580387e-07   -7.881929972933684e-07
9.967874774133452e-06   -5.454147607580387e-07   -7.881929972933684e-07
9.967874774133452e-06   -5.454147607580387e-07   -7.881929972933684e-07
9.967874774133452e-06   -5.454147607580387e-07   -7.881929972933684e-07
1.0175461959670641e-05   0.0   -1.470202126999582e-05
1.0175461959670641e-05   0.0   -1.470202126999582e-05
1.0175461959670641e-05   0.0   -1.470202126999582e-05
1.0175461959670641e-05   0.0   -1.470202126999582e-05
1.4740891863790377e-06   -1.0105603990289314e-07   -1.3909969056808214e-07
1.4740891863790377e-06   -1.0105603990289314e-07   -1.3909969056808214e-07
1.4740891863790377e-06   -1.0105603990289314e-07   -1.3909969056808214e-07
1.4740891863790377e-06   -1.0105603990289314e-07   -1.3909969056808214e-07
5.721821116995401e-06   2.153447532207532e-07   -7.408493384136199e-06
5.721821116995401e-06   2.153447532207532e-07   -7.408493384136199e-06
5.721821116995401e-06   2.153447532207532e-07   -7.408493384136199e-06
5.721821116995401e-06   2.153447532207532e-07   -7.408493384136199e-06
9.960283126514435e-06   0.0   -1.5432152039843057e-05
9.960283126514435e-06   0.0   -1.5432152039843057e-05
9.960283126514435e-06   0.0   -1.5432152039843057e-05
9.960283126514435e-06   0.0   -1.5432152039843057e-05
2.25796000955431e-05   -2.9734822732021715e-06   3.8159535446168115e-06
2.25796000955431e-05   -2.9734822732021715e-06   3.8159535446168115e-06
2.25796000955431e-05   -2.9734822732021715e-06   3.8159535446168115e-06
2.25796000955431e-05   -2.9734822732021715e-06   3.8159535446168115e-06
2.1228695575568712e-05   0.0   -1.7021432787981812e-05
2.1228695575568712e-05   0.0   -1.7021432787981812e-05
2.1228695575568712e-05   0.0   -1.7021432787981812e-05
2.1228695575568712e-05   0.0   -1.7021432787981812e-05
9.99555269065781e-06   -2.5206863083002225e-06   3.212883805183124e-06
9.99555269065781e-06   -2.5206863083002225e-06   3.212883805183124e-06
9.99555269065781e-06   -2.5206863083002225e-06   3.212883805183124e-06
9.99555269065781e-06   -2.5206863083002225e-06   3.212883805183124e-06
1.5594489351041574e-05   -1.3244006234489637e-06   -6.836448706367196e-06
1.5594489351041574e-05   -1.3244006234489637e-06   -6.836448706367196e-06
1.5594489351041574e-05   -1.3244006234489637e-06   -6.836448706367196e-06
1.5594489351041574e-05   -1.3244006234489637e-06   -6.836448706367196e-06
9.995552690657819e-06   0.0   -1.5509021003001662e-05
9.995552690657819e-06   0.0   -1.5509021003001662e-05
9.995552690657819e-06   0.0   -1.5509021003001662e-05
9.995552690657819e-06   0.0   -1.5509021003001662e-05
2.1228695575568712e-05   -2.5206863083002293e-06   1.7004720202029878e-06
2.1228695575568712e-05   -2.5206863083002293e-06   1.7004720202029878e-06
2.1228695575568712e-05   -2.5206863083002293e-06   1.7004720202029878e-06
2.1228695575568712e-05   -2.5206863083002293e-06   1.7004720202029878e-06
2.0612574270586388e-05   0.0   -1.6667713757684583e-05
2.0612574270586388e-05   0.0   -1.6667713757684583e-05
2.0612574270586388e-05   0.0   -1.6667713757684583e-05
2.0612574270586388e-05   0.0   -1.6667713757684583e-05
9.967874774133452e-06   -2.3000498789483956e-06   2.4534819971059834e-06
9.967874774133452e-06   -2.3000498789483956e-06   2.4534819971059834e-06
9.967874774133452e-06   -2.3000498789483956e-06   2.4534819971059834e-06
9.967874774133452e-06   -2.3000498789483956e-06   2.4534819971059834e-06
1.53040634806221e-05   -9.65577295569091e-07   -7.2408493970693175e-06
1.53040634806221e-05   -9.65577295569091e-07   -7.2408493970693175e-06
1.53040634806221e-05   -9.65577295569091e-07   -7.2408493970693175e-06
1.53040634806221e-05   -9.65577295569091e-07   -7.2408493970693175e-06
9.967874774133469e-06   0.0   -1.5287683830315545e-05
9.967874774133469e-06   0.0   -1.5287683830315545e-05
9.967874774133469e-06   0.0   -1.5287683830315545e-05
9.967874774133469e-06   0.0   -1.5287683830315545e-05
2.061257427058635e-05   -2.3000498789483956e-06   1.0734520697369454e-06
2.061257427058635e-05   -2.3000498789483956e-06   1.0734520697369454e-06
2.061257427058635e-05   -2.3000498789483956e-06   1.0734520697369454e-06
2.061257427058635e-05   -2.3000498789483956e-06   1.0734520697369454e-06
1.9684766826100566e-05   0.0   -1.5768073434094918e-05
1.9684766826100566e-05   0.0   -1.5768073434094918e-05
1.9684766826100566e-05   0.0   -1.5768073434094918e-05
1.9684766826100566e-05   0.0   -1.5768073434094918e-05
1.0175461959670615e-05   -1.7767536068318297e-06   1.1468201740540647e-06
1.0175461959670615e-05   -1.7767536068318297e-06   1.1468201740540647e-06
1.0175461959670615e-05   -1.7767536068318297e-06   1.1468201740540647e-06
1.0175461959670615e-05   -1.7767536068318297e-06   1.1468201740540647e-06
1.4826320800116992e-05   -4.00324669816144e-07   -7.430468588899299e-06
1.4826320800116992e-05   -4.00324669816144e-07   -7.430468588899299e-06
1.4826320800116992e-05   -4.00324669816144e-07   -7.430468588899299e-06
1.4826320800116992e-05   -4.00324669816144e-07   -7.430468588899299e-06
-2.2008279084305762e-05   2.802726497520191e-06   -1.456743112888738e-05
-2.2008279084305762e-05   2.802726497520191e-06   -1.456743112888738e-05